<?xml version="1.0" encoding="UTF-8"?>

<!-- generated on Mon Apr 30 21:46:50 2018 by SUMO Version 0.32.0
<?xml version="1.0" encoding="UTF-8"?>

<configuration xmlns:xsi="http://www.w3.org/2001/XMLSchema-instance" xsi:noNamespaceSchemaLocation="http://sumo.dlr.de/xsd/sumoConfiguration.xsd">

    <input>
        <net-file value="./small_grid/data/exp.net.xml"/>
        <route-files value="./small_grid/data/exp_0.rou.xml"/>
        <additional-files value="./small_grid/data/exp.add.xml"/>
    </input>

    <time>
        <begin value="0"/>
        <end value="7200"/>
    </time>

    <processing>
        <time-to-teleport value="-1"/>
    </processing>

    <report>
        <no-warnings value="true"/>
        <no-step-log value="true"/>
    </report>

    <traci_server>
        <remote-port value="8000"/>
    </traci_server>

    <random_number>
        <seed value="82"/>
    </random_number>

</configuration>
-->

<detector xmlns:xsi="http://www.w3.org/2001/XMLSchema-instance" xsi:noNamespaceSchemaLocation="http://sumo.dlr.de/xsd/det_e1_file.xsd">
    <interval begin="0.00" end="15.00" id="ild_in:nt1,nt2" nVehContrib="1" flow="240.00" occupancy="1.70" speed="19.64" length="5.00" nVehEntered="1"/>
    <interval begin="0.00" end="15.00" id="ild_in:nt1,npc" nVehContrib="0" flow="0.00" occupancy="0.00" speed="-1.00" length="-1.00" nVehEntered="0"/>
    <interval begin="0.00" end="15.00" id="ild_in:nt1,nt6" nVehContrib="1" flow="240.00" occupancy="4.53" speed="7.36" length="5.00" nVehEntered="1"/>
    <interval begin="0.00" end="15.00" id="ild_in:npc,nt3" nVehContrib="0" flow="0.00" occupancy="0.00" speed="-1.00" length="-1.00" nVehEntered="0"/>
    <interval begin="0.00" end="15.00" id="ild_in:npc,nt5" nVehContrib="0" flow="0.00" occupancy="0.00" speed="-1.00" length="-1.00" nVehEntered="0"/>
    <interval begin="0.00" end="15.00" id="ild_in:nt5,nt6" nVehContrib="2" flow="480.00" occupancy="3.81" speed="17.53" length="5.00" nVehEntered="2"/>
    <interval begin="0.00" end="15.00" id="ild_in:nt4,nt3" nVehContrib="2" flow="480.00" occupancy="3.56" speed="18.79" length="5.00" nVehEntered="2"/>
    <interval begin="0.00" end="15.00" id="ild_in:nt4,nt5" nVehContrib="0" flow="0.00" occupancy="0.00" speed="-1.00" length="-1.00" nVehEntered="0"/>
    <interval begin="0.00" end="15.00" id="ild_in:nt3,nt2" nVehContrib="0" flow="0.00" occupancy="0.00" speed="-1.00" length="-1.00" nVehEntered="0"/>
    <interval begin="0.00" end="15.00" id="ild_in:nt6,np12" nVehContrib="0" flow="0.00" occupancy="0.00" speed="-1.00" length="-1.00" nVehEntered="0"/>
    <interval begin="0.00" end="15.00" id="ild_in:nt6,np13" nVehContrib="0" flow="0.00" occupancy="0.00" speed="-1.00" length="-1.00" nVehEntered="0"/>
    <interval begin="0.00" end="15.00" id="ild_in:nt2,np4" nVehContrib="0" flow="0.00" occupancy="1.87" speed="-1.00" length="-1.00" nVehEntered="1"/>
    <interval begin="0.00" end="15.00" id="ild_in:nt2,np5" nVehContrib="0" flow="0.00" occupancy="0.00" speed="-1.00" length="-1.00" nVehEntered="0"/>
    <interval begin="0.00" end="15.00" id="ild_in:nt5,np11" nVehContrib="0" flow="0.00" occupancy="0.00" speed="-1.00" length="-1.00" nVehEntered="0"/>
    <interval begin="0.00" end="15.00" id="ild_in:nt3,np6" nVehContrib="0" flow="0.00" occupancy="0.00" speed="-1.00" length="-1.00" nVehEntered="0"/>
    <interval begin="15.00" end="30.00" id="ild_in:nt1,nt2" nVehContrib="1" flow="240.00" occupancy="2.18" speed="15.30" length="5.00" nVehEntered="1"/>
    <interval begin="15.00" end="30.00" id="ild_in:nt1,npc" nVehContrib="2" flow="480.00" occupancy="4.71" speed="14.16" length="5.00" nVehEntered="2"/>
    <interval begin="15.00" end="30.00" id="ild_in:nt1,nt6" nVehContrib="1" flow="240.00" occupancy="2.58" speed="12.94" length="5.00" nVehEntered="1"/>
    <interval begin="15.00" end="30.00" id="ild_in:npc,nt3" nVehContrib="0" flow="0.00" occupancy="0.00" speed="-1.00" length="-1.00" nVehEntered="0"/>
    <interval begin="15.00" end="30.00" id="ild_in:npc,nt5" nVehContrib="0" flow="0.00" occupancy="0.00" speed="-1.00" length="-1.00" nVehEntered="0"/>
    <interval begin="15.00" end="30.00" id="ild_in:nt5,nt6" nVehContrib="3" flow="720.00" occupancy="7.18" speed="14.20" length="5.00" nVehEntered="3"/>
    <interval begin="15.00" end="30.00" id="ild_in:nt4,nt3" nVehContrib="2" flow="480.00" occupancy="7.75" speed="12.32" length="5.00" nVehEntered="3"/>
    <interval begin="15.00" end="30.00" id="ild_in:nt4,nt5" nVehContrib="0" flow="0.00" occupancy="0.00" speed="-1.00" length="-1.00" nVehEntered="0"/>
    <interval begin="15.00" end="30.00" id="ild_in:nt3,nt2" nVehContrib="1" flow="240.00" occupancy="1.82" speed="18.34" length="5.00" nVehEntered="1"/>
    <interval begin="15.00" end="30.00" id="ild_in:nt6,np12" nVehContrib="2" flow="480.00" occupancy="3.62" speed="18.45" length="5.00" nVehEntered="2"/>
    <interval begin="15.00" end="30.00" id="ild_in:nt6,np13" nVehContrib="0" flow="0.00" occupancy="0.00" speed="-1.00" length="-1.00" nVehEntered="0"/>
    <interval begin="15.00" end="30.00" id="ild_in:nt2,np4" nVehContrib="5" flow="1200.00" occupancy="8.38" speed="16.68" length="5.00" nVehEntered="4"/>
    <interval begin="15.00" end="30.00" id="ild_in:nt2,np5" nVehContrib="0" flow="0.00" occupancy="0.00" speed="-1.00" length="-1.00" nVehEntered="0"/>
    <interval begin="15.00" end="30.00" id="ild_in:nt5,np11" nVehContrib="0" flow="0.00" occupancy="0.00" speed="-1.00" length="-1.00" nVehEntered="0"/>
    <interval begin="15.00" end="30.00" id="ild_in:nt3,np6" nVehContrib="0" flow="0.00" occupancy="0.00" speed="-1.00" length="-1.00" nVehEntered="0"/>
    <interval begin="30.00" end="45.00" id="ild_in:nt1,nt2" nVehContrib="0" flow="0.00" occupancy="0.00" speed="-1.00" length="-1.00" nVehEntered="0"/>
    <interval begin="30.00" end="45.00" id="ild_in:nt1,npc" nVehContrib="2" flow="480.00" occupancy="4.12" speed="16.34" length="5.00" nVehEntered="2"/>
    <interval begin="30.00" end="45.00" id="ild_in:nt1,nt6" nVehContrib="0" flow="0.00" occupancy="0.00" speed="-1.00" length="-1.00" nVehEntered="0"/>
    <interval begin="30.00" end="45.00" id="ild_in:npc,nt3" nVehContrib="1" flow="240.00" occupancy="1.78" speed="18.69" length="5.00" nVehEntered="1"/>
    <interval begin="30.00" end="45.00" id="ild_in:npc,nt5" nVehContrib="1" flow="240.00" occupancy="1.75" speed="19.10" length="5.00" nVehEntered="1"/>
    <interval begin="30.00" end="45.00" id="ild_in:nt5,nt6" nVehContrib="2" flow="480.00" occupancy="3.71" speed="17.98" length="5.00" nVehEntered="2"/>
    <interval begin="30.00" end="45.00" id="ild_in:nt4,nt3" nVehContrib="2" flow="480.00" occupancy="1.76" speed="16.88" length="5.00" nVehEntered="1"/>
    <interval begin="30.00" end="45.00" id="ild_in:nt4,nt5" nVehContrib="2" flow="480.00" occupancy="9.29" speed="11.96" length="5.00" nVehEntered="2"/>
    <interval begin="30.00" end="45.00" id="ild_in:nt3,nt2" nVehContrib="0" flow="0.00" occupancy="0.00" speed="-1.00" length="-1.00" nVehEntered="0"/>
    <interval begin="30.00" end="45.00" id="ild_in:nt6,np12" nVehContrib="0" flow="0.00" occupancy="0.00" speed="-1.00" length="-1.00" nVehEntered="0"/>
    <interval begin="30.00" end="45.00" id="ild_in:nt6,np13" nVehContrib="3" flow="720.00" occupancy="7.46" speed="13.53" length="5.00" nVehEntered="3"/>
    <interval begin="30.00" end="45.00" id="ild_in:nt2,np4" nVehContrib="0" flow="0.00" occupancy="0.00" speed="-1.00" length="-1.00" nVehEntered="0"/>
    <interval begin="30.00" end="45.00" id="ild_in:nt2,np5" nVehContrib="1" flow="240.00" occupancy="2.76" speed="12.06" length="5.00" nVehEntered="1"/>
    <interval begin="30.00" end="45.00" id="ild_in:nt5,np11" nVehContrib="0" flow="0.00" occupancy="0.00" speed="-1.00" length="-1.00" nVehEntered="0"/>
    <interval begin="30.00" end="45.00" id="ild_in:nt3,np6" nVehContrib="0" flow="0.00" occupancy="0.00" speed="-1.00" length="-1.00" nVehEntered="0"/>
    <interval begin="45.00" end="60.00" id="ild_in:nt1,nt2" nVehContrib="1" flow="240.00" occupancy="4.26" speed="7.82" length="5.00" nVehEntered="1"/>
    <interval begin="45.00" end="60.00" id="ild_in:nt1,npc" nVehContrib="2" flow="480.00" occupancy="3.47" speed="19.20" length="5.00" nVehEntered="2"/>
    <interval begin="45.00" end="60.00" id="ild_in:nt1,nt6" nVehContrib="2" flow="480.00" occupancy="3.73" speed="17.91" length="5.00" nVehEntered="2"/>
    <interval begin="45.00" end="60.00" id="ild_in:npc,nt3" nVehContrib="1" flow="240.00" occupancy="1.81" speed="18.38" length="5.00" nVehEntered="1"/>
    <interval begin="45.00" end="60.00" id="ild_in:npc,nt5" nVehContrib="1" flow="240.00" occupancy="1.77" speed="18.85" length="5.00" nVehEntered="1"/>
    <interval begin="45.00" end="60.00" id="ild_in:nt5,nt6" nVehContrib="3" flow="720.00" occupancy="5.50" speed="18.20" length="5.00" nVehEntered="3"/>
    <interval begin="45.00" end="60.00" id="ild_in:nt4,nt3" nVehContrib="5" flow="1200.00" occupancy="12.61" speed="13.71" length="5.00" nVehEntered="5"/>
    <interval begin="45.00" end="60.00" id="ild_in:nt4,nt5" nVehContrib="2" flow="480.00" occupancy="4.16" speed="16.13" length="5.00" nVehEntered="2"/>
    <interval begin="45.00" end="60.00" id="ild_in:nt3,nt2" nVehContrib="3" flow="720.00" occupancy="6.61" speed="15.24" length="5.00" nVehEntered="3"/>
    <interval begin="45.00" end="60.00" id="ild_in:nt6,np12" nVehContrib="7" flow="1680.00" occupancy="14.60" speed="16.45" length="5.00" nVehEntered="7"/>
    <interval begin="45.00" end="60.00" id="ild_in:nt6,np13" nVehContrib="0" flow="0.00" occupancy="0.00" speed="-1.00" length="-1.00" nVehEntered="0"/>
    <interval begin="45.00" end="60.00" id="ild_in:nt2,np4" nVehContrib="3" flow="720.00" occupancy="7.24" speed="13.91" length="5.00" nVehEntered="3"/>
    <interval begin="45.00" end="60.00" id="ild_in:nt2,np5" nVehContrib="0" flow="0.00" occupancy="0.00" speed="-1.00" length="-1.00" nVehEntered="0"/>
    <interval begin="45.00" end="60.00" id="ild_in:nt5,np11" nVehContrib="1" flow="240.00" occupancy="1.70" speed="19.57" length="5.00" nVehEntered="1"/>
    <interval begin="45.00" end="60.00" id="ild_in:nt3,np6" nVehContrib="2" flow="480.00" occupancy="4.07" speed="16.66" length="5.00" nVehEntered="2"/>
    <interval begin="60.00" end="75.00" id="ild_in:nt1,nt2" nVehContrib="0" flow="0.00" occupancy="0.00" speed="-1.00" length="-1.00" nVehEntered="0"/>
    <interval begin="60.00" end="75.00" id="ild_in:nt1,npc" nVehContrib="3" flow="720.00" occupancy="6.92" speed="14.62" length="5.00" nVehEntered="3"/>
    <interval begin="60.00" end="75.00" id="ild_in:nt1,nt6" nVehContrib="0" flow="0.00" occupancy="0.00" speed="-1.00" length="-1.00" nVehEntered="0"/>
    <interval begin="60.00" end="75.00" id="ild_in:npc,nt3" nVehContrib="0" flow="0.00" occupancy="0.00" speed="-1.00" length="-1.00" nVehEntered="0"/>
    <interval begin="60.00" end="75.00" id="ild_in:npc,nt5" nVehContrib="2" flow="480.00" occupancy="3.36" speed="19.84" length="5.00" nVehEntered="2"/>
    <interval begin="60.00" end="75.00" id="ild_in:nt5,nt6" nVehContrib="4" flow="960.00" occupancy="9.73" speed="14.55" length="5.00" nVehEntered="5"/>
    <interval begin="60.00" end="75.00" id="ild_in:nt4,nt3" nVehContrib="1" flow="240.00" occupancy="2.13" speed="15.66" length="5.00" nVehEntered="1"/>
    <interval begin="60.00" end="75.00" id="ild_in:nt4,nt5" nVehContrib="2" flow="480.00" occupancy="4.61" speed="15.48" length="5.00" nVehEntered="2"/>
    <interval begin="60.00" end="75.00" id="ild_in:nt3,nt2" nVehContrib="2" flow="480.00" occupancy="4.80" speed="13.92" length="5.00" nVehEntered="2"/>
    <interval begin="60.00" end="75.00" id="ild_in:nt6,np12" nVehContrib="1" flow="240.00" occupancy="1.70" speed="19.56" length="5.00" nVehEntered="1"/>
    <interval begin="60.00" end="75.00" id="ild_in:nt6,np13" nVehContrib="0" flow="0.00" occupancy="0.00" speed="-1.00" length="-1.00" nVehEntered="0"/>
    <interval begin="60.00" end="75.00" id="ild_in:nt2,np4" nVehContrib="1" flow="240.00" occupancy="2.06" speed="16.22" length="5.00" nVehEntered="1"/>
    <interval begin="60.00" end="75.00" id="ild_in:nt2,np5" nVehContrib="3" flow="720.00" occupancy="6.99" speed="14.53" length="5.00" nVehEntered="3"/>
    <interval begin="60.00" end="75.00" id="ild_in:nt5,np11" nVehContrib="2" flow="480.00" occupancy="3.71" speed="18.00" length="5.00" nVehEntered="2"/>
    <interval begin="60.00" end="75.00" id="ild_in:nt3,np6" nVehContrib="1" flow="240.00" occupancy="3.05" speed="10.94" length="5.00" nVehEntered="1"/>
    <interval begin="75.00" end="90.00" id="ild_in:nt1,nt2" nVehContrib="0" flow="0.00" occupancy="0.00" speed="-1.00" length="-1.00" nVehEntered="0"/>
    <interval begin="75.00" end="90.00" id="ild_in:nt1,npc" nVehContrib="3" flow="720.00" occupancy="6.48" speed="15.62" length="5.00" nVehEntered="3"/>
    <interval begin="75.00" end="90.00" id="ild_in:nt1,nt6" nVehContrib="0" flow="0.00" occupancy="0.00" speed="-1.00" length="-1.00" nVehEntered="0"/>
    <interval begin="75.00" end="90.00" id="ild_in:npc,nt3" nVehContrib="2" flow="480.00" occupancy="3.57" speed="18.67" length="5.00" nVehEntered="2"/>
    <interval begin="75.00" end="90.00" id="ild_in:npc,nt5" nVehContrib="3" flow="720.00" occupancy="5.40" speed="18.55" length="5.00" nVehEntered="3"/>
    <interval begin="75.00" end="90.00" id="ild_in:nt5,nt6" nVehContrib="4" flow="960.00" occupancy="6.86" speed="18.60" length="5.00" nVehEntered="3"/>
    <interval begin="75.00" end="90.00" id="ild_in:nt4,nt3" nVehContrib="3" flow="720.00" occupancy="6.10" speed="16.85" length="5.00" nVehEntered="3"/>
    <interval begin="75.00" end="90.00" id="ild_in:nt4,nt5" nVehContrib="2" flow="480.00" occupancy="12.88" speed="8.36" length="5.00" nVehEntered="2"/>
    <interval begin="75.00" end="90.00" id="ild_in:nt3,nt2" nVehContrib="0" flow="0.00" occupancy="0.00" speed="-1.00" length="-1.00" nVehEntered="0"/>
    <interval begin="75.00" end="90.00" id="ild_in:nt6,np12" nVehContrib="3" flow="720.00" occupancy="5.11" speed="19.56" length="5.00" nVehEntered="3"/>
    <interval begin="75.00" end="90.00" id="ild_in:nt6,np13" nVehContrib="3" flow="720.00" occupancy="7.33" speed="13.74" length="5.00" nVehEntered="3"/>
    <interval begin="75.00" end="90.00" id="ild_in:nt2,np4" nVehContrib="8" flow="1920.00" occupancy="17.11" speed="17.04" length="5.00" nVehEntered="9"/>
    <interval begin="75.00" end="90.00" id="ild_in:nt2,np5" nVehContrib="0" flow="0.00" occupancy="0.00" speed="-1.00" length="-1.00" nVehEntered="0"/>
    <interval begin="75.00" end="90.00" id="ild_in:nt5,np11" nVehContrib="2" flow="480.00" occupancy="5.62" speed="12.00" length="5.00" nVehEntered="2"/>
    <interval begin="75.00" end="90.00" id="ild_in:nt3,np6" nVehContrib="1" flow="240.00" occupancy="2.60" speed="12.84" length="5.00" nVehEntered="1"/>
    <interval begin="90.00" end="105.00" id="ild_in:nt1,nt2" nVehContrib="0" flow="0.00" occupancy="0.00" speed="-1.00" length="-1.00" nVehEntered="0"/>
    <interval begin="90.00" end="105.00" id="ild_in:nt1,npc" nVehContrib="1" flow="240.00" occupancy="1.79" speed="18.59" length="5.00" nVehEntered="1"/>
    <interval begin="90.00" end="105.00" id="ild_in:nt1,nt6" nVehContrib="3" flow="720.00" occupancy="6.72" speed="14.88" length="5.00" nVehEntered="3"/>
    <interval begin="90.00" end="105.00" id="ild_in:npc,nt3" nVehContrib="0" flow="0.00" occupancy="0.00" speed="-1.00" length="-1.00" nVehEntered="0"/>
    <interval begin="90.00" end="105.00" id="ild_in:npc,nt5" nVehContrib="1" flow="240.00" occupancy="1.67" speed="19.96" length="5.00" nVehEntered="1"/>
    <interval begin="90.00" end="105.00" id="ild_in:nt5,nt6" nVehContrib="2" flow="480.00" occupancy="3.48" speed="19.16" length="5.00" nVehEntered="2"/>
    <interval begin="90.00" end="105.00" id="ild_in:nt4,nt3" nVehContrib="1" flow="240.00" occupancy="2.55" speed="13.09" length="5.00" nVehEntered="1"/>
    <interval begin="90.00" end="105.00" id="ild_in:nt4,nt5" nVehContrib="3" flow="720.00" occupancy="20.65" speed="6.27" length="5.00" nVehEntered="3"/>
    <interval begin="90.00" end="105.00" id="ild_in:nt3,nt2" nVehContrib="4" flow="960.00" occupancy="9.87" speed="13.60" length="5.00" nVehEntered="4"/>
    <interval begin="90.00" end="105.00" id="ild_in:nt6,np12" nVehContrib="4" flow="960.00" occupancy="9.16" speed="14.89" length="5.00" nVehEntered="4"/>
    <interval begin="90.00" end="105.00" id="ild_in:nt6,np13" nVehContrib="0" flow="0.00" occupancy="0.00" speed="-1.00" length="-1.00" nVehEntered="0"/>
    <interval begin="90.00" end="105.00" id="ild_in:nt2,np4" nVehContrib="1" flow="240.00" occupancy="0.75" speed="17.67" length="5.00" nVehEntered="0"/>
    <interval begin="90.00" end="105.00" id="ild_in:nt2,np5" nVehContrib="2" flow="480.00" occupancy="5.28" speed="12.78" length="5.00" nVehEntered="2"/>
    <interval begin="90.00" end="105.00" id="ild_in:nt5,np11" nVehContrib="1" flow="240.00" occupancy="1.77" speed="18.82" length="5.00" nVehEntered="1"/>
    <interval begin="90.00" end="105.00" id="ild_in:nt3,np6" nVehContrib="0" flow="0.00" occupancy="0.00" speed="-1.00" length="-1.00" nVehEntered="0"/>
    <interval begin="105.00" end="120.00" id="ild_in:nt1,nt2" nVehContrib="2" flow="480.00" occupancy="4.89" speed="13.68" length="5.00" nVehEntered="2"/>
    <interval begin="105.00" end="120.00" id="ild_in:nt1,npc" nVehContrib="3" flow="720.00" occupancy="6.49" speed="15.53" length="5.00" nVehEntered="3"/>
    <interval begin="105.00" end="120.00" id="ild_in:nt1,nt6" nVehContrib="1" flow="240.00" occupancy="8.47" speed="3.93" length="5.00" nVehEntered="1"/>
    <interval begin="105.00" end="120.00" id="ild_in:npc,nt3" nVehContrib="0" flow="0.00" occupancy="0.00" speed="-1.00" length="-1.00" nVehEntered="0"/>
    <interval begin="105.00" end="120.00" id="ild_in:npc,nt5" nVehContrib="1" flow="240.00" occupancy="1.76" speed="18.96" length="5.00" nVehEntered="1"/>
    <interval begin="105.00" end="120.00" id="ild_in:nt5,nt6" nVehContrib="3" flow="720.00" occupancy="6.20" speed="16.43" length="5.00" nVehEntered="3"/>
    <interval begin="105.00" end="120.00" id="ild_in:nt4,nt3" nVehContrib="4" flow="960.00" occupancy="9.63" speed="14.17" length="5.00" nVehEntered="4"/>
    <interval begin="105.00" end="120.00" id="ild_in:nt4,nt5" nVehContrib="3" flow="720.00" occupancy="32.76" speed="4.02" length="5.00" nVehEntered="3"/>
    <interval begin="105.00" end="120.00" id="ild_in:nt3,nt2" nVehContrib="3" flow="720.00" occupancy="6.73" speed="15.06" length="5.00" nVehEntered="3"/>
    <interval begin="105.00" end="120.00" id="ild_in:nt6,np12" nVehContrib="0" flow="0.00" occupancy="0.00" speed="-1.00" length="-1.00" nVehEntered="0"/>
    <interval begin="105.00" end="120.00" id="ild_in:nt6,np13" nVehContrib="9" flow="2160.00" occupancy="18.11" speed="16.83" length="5.00" nVehEntered="9"/>
    <interval begin="105.00" end="120.00" id="ild_in:nt2,np4" nVehContrib="3" flow="720.00" occupancy="7.58" speed="13.32" length="5.00" nVehEntered="3"/>
    <interval begin="105.00" end="120.00" id="ild_in:nt2,np5" nVehContrib="3" flow="720.00" occupancy="7.67" speed="13.34" length="5.00" nVehEntered="3"/>
    <interval begin="105.00" end="120.00" id="ild_in:nt5,np11" nVehContrib="1" flow="240.00" occupancy="2.29" speed="14.58" length="5.00" nVehEntered="1"/>
    <interval begin="105.00" end="120.00" id="ild_in:nt3,np6" nVehContrib="2" flow="480.00" occupancy="4.62" speed="14.54" length="5.00" nVehEntered="2"/>
    <interval begin="120.00" end="135.00" id="ild_in:nt1,nt2" nVehContrib="1" flow="240.00" occupancy="13.47" speed="2.48" length="5.00" nVehEntered="1"/>
    <interval begin="120.00" end="135.00" id="ild_in:nt1,npc" nVehContrib="4" flow="960.00" occupancy="7.81" speed="17.24" length="5.00" nVehEntered="4"/>
    <interval begin="120.00" end="135.00" id="ild_in:nt1,nt6" nVehContrib="0" flow="0.00" occupancy="0.00" speed="-1.00" length="-1.00" nVehEntered="0"/>
    <interval begin="120.00" end="135.00" id="ild_in:npc,nt3" nVehContrib="2" flow="480.00" occupancy="3.53" speed="18.92" length="5.00" nVehEntered="2"/>
    <interval begin="120.00" end="135.00" id="ild_in:npc,nt5" nVehContrib="2" flow="480.00" occupancy="3.62" speed="18.40" length="5.00" nVehEntered="2"/>
    <interval begin="120.00" end="135.00" id="ild_in:nt5,nt6" nVehContrib="0" flow="0.00" occupancy="0.00" speed="-1.00" length="-1.00" nVehEntered="0"/>
    <interval begin="120.00" end="135.00" id="ild_in:nt4,nt3" nVehContrib="2" flow="480.00" occupancy="3.54" speed="18.87" length="5.00" nVehEntered="2"/>
    <interval begin="120.00" end="135.00" id="ild_in:nt4,nt5" nVehContrib="0" flow="0.00" occupancy="0.00" speed="-1.00" length="-1.00" nVehEntered="0"/>
    <interval begin="120.00" end="135.00" id="ild_in:nt3,nt2" nVehContrib="0" flow="0.00" occupancy="0.00" speed="-1.00" length="-1.00" nVehEntered="0"/>
    <interval begin="120.00" end="135.00" id="ild_in:nt6,np12" nVehContrib="0" flow="0.00" occupancy="0.00" speed="-1.00" length="-1.00" nVehEntered="0"/>
    <interval begin="120.00" end="135.00" id="ild_in:nt6,np13" nVehContrib="9" flow="2160.00" occupancy="16.12" speed="18.63" length="5.00" nVehEntered="9"/>
    <interval begin="120.00" end="135.00" id="ild_in:nt2,np4" nVehContrib="5" flow="1200.00" occupancy="12.92" speed="15.21" length="5.00" nVehEntered="6"/>
    <interval begin="120.00" end="135.00" id="ild_in:nt2,np5" nVehContrib="0" flow="0.00" occupancy="0.00" speed="-1.00" length="-1.00" nVehEntered="0"/>
    <interval begin="120.00" end="135.00" id="ild_in:nt5,np11" nVehContrib="1" flow="240.00" occupancy="1.78" speed="18.72" length="5.00" nVehEntered="1"/>
    <interval begin="120.00" end="135.00" id="ild_in:nt3,np6" nVehContrib="1" flow="240.00" occupancy="2.00" speed="16.67" length="5.00" nVehEntered="1"/>
    <interval begin="135.00" end="150.00" id="ild_in:nt1,nt2" nVehContrib="0" flow="0.00" occupancy="0.00" speed="-1.00" length="-1.00" nVehEntered="0"/>
    <interval begin="135.00" end="150.00" id="ild_in:nt1,npc" nVehContrib="3" flow="720.00" occupancy="5.83" speed="17.21" length="5.00" nVehEntered="3"/>
    <interval begin="135.00" end="150.00" id="ild_in:nt1,nt6" nVehContrib="1" flow="240.00" occupancy="2.46" speed="13.53" length="5.00" nVehEntered="1"/>
    <interval begin="135.00" end="150.00" id="ild_in:npc,nt3" nVehContrib="1" flow="240.00" occupancy="1.74" speed="19.19" length="5.00" nVehEntered="1"/>
    <interval begin="135.00" end="150.00" id="ild_in:npc,nt5" nVehContrib="2" flow="480.00" occupancy="3.56" speed="18.73" length="5.00" nVehEntered="2"/>
    <interval begin="135.00" end="150.00" id="ild_in:nt5,nt6" nVehContrib="7" flow="1680.00" occupancy="15.67" speed="15.26" length="5.00" nVehEntered="7"/>
    <interval begin="135.00" end="150.00" id="ild_in:nt4,nt3" nVehContrib="2" flow="480.00" occupancy="6.66" speed="10.02" length="5.00" nVehEntered="2"/>
    <interval begin="135.00" end="150.00" id="ild_in:nt4,nt5" nVehContrib="1" flow="240.00" occupancy="40.86" speed="0.82" length="5.00" nVehEntered="1"/>
    <interval begin="135.00" end="150.00" id="ild_in:nt3,nt2" nVehContrib="4" flow="960.00" occupancy="9.44" speed="14.43" length="5.00" nVehEntered="4"/>
    <interval begin="135.00" end="150.00" id="ild_in:nt6,np12" nVehContrib="0" flow="0.00" occupancy="0.00" speed="-1.00" length="-1.00" nVehEntered="0"/>
    <interval begin="135.00" end="150.00" id="ild_in:nt6,np13" nVehContrib="9" flow="2160.00" occupancy="16.55" speed="18.28" length="5.00" nVehEntered="9"/>
    <interval begin="135.00" end="150.00" id="ild_in:nt2,np4" nVehContrib="5" flow="1200.00" occupancy="7.85" speed="17.69" length="5.00" nVehEntered="4"/>
    <interval begin="135.00" end="150.00" id="ild_in:nt2,np5" nVehContrib="3" flow="720.00" occupancy="7.44" speed="13.85" length="5.00" nVehEntered="3"/>
    <interval begin="135.00" end="150.00" id="ild_in:nt5,np11" nVehContrib="1" flow="240.00" occupancy="1.74" speed="19.13" length="5.00" nVehEntered="1"/>
    <interval begin="135.00" end="150.00" id="ild_in:nt3,np6" nVehContrib="1" flow="240.00" occupancy="1.86" speed="17.92" length="5.00" nVehEntered="1"/>
    <interval begin="150.00" end="165.00" id="ild_in:nt1,nt2" nVehContrib="1" flow="240.00" occupancy="2.22" speed="15.01" length="5.00" nVehEntered="1"/>
    <interval begin="150.00" end="165.00" id="ild_in:nt1,npc" nVehContrib="2" flow="480.00" occupancy="3.94" speed="16.94" length="5.00" nVehEntered="2"/>
    <interval begin="150.00" end="165.00" id="ild_in:nt1,nt6" nVehContrib="1" flow="240.00" occupancy="3.74" speed="8.91" length="5.00" nVehEntered="1"/>
    <interval begin="150.00" end="165.00" id="ild_in:npc,nt3" nVehContrib="3" flow="720.00" occupancy="5.15" speed="19.41" length="5.00" nVehEntered="3"/>
    <interval begin="150.00" end="165.00" id="ild_in:npc,nt5" nVehContrib="1" flow="240.00" occupancy="1.76" speed="18.98" length="5.00" nVehEntered="1"/>
    <interval begin="150.00" end="165.00" id="ild_in:nt5,nt6" nVehContrib="8" flow="1920.00" occupancy="18.85" speed="17.38" length="5.00" nVehEntered="9"/>
    <interval begin="150.00" end="165.00" id="ild_in:nt4,nt3" nVehContrib="2" flow="480.00" occupancy="4.41" speed="15.28" length="5.00" nVehEntered="2"/>
    <interval begin="150.00" end="165.00" id="ild_in:nt4,nt5" nVehContrib="2" flow="480.00" occupancy="37.66" speed="1.80" length="5.00" nVehEntered="2"/>
    <interval begin="150.00" end="165.00" id="ild_in:nt3,nt2" nVehContrib="0" flow="0.00" occupancy="0.00" speed="-1.00" length="-1.00" nVehEntered="0"/>
    <interval begin="150.00" end="165.00" id="ild_in:nt6,np12" nVehContrib="6" flow="1440.00" occupancy="13.36" speed="15.53" length="5.00" nVehEntered="6"/>
    <interval begin="150.00" end="165.00" id="ild_in:nt6,np13" nVehContrib="1" flow="240.00" occupancy="1.94" speed="17.15" length="5.00" nVehEntered="1"/>
    <interval begin="150.00" end="165.00" id="ild_in:nt2,np4" nVehContrib="6" flow="1440.00" occupancy="13.82" speed="14.78" length="5.00" nVehEntered="6"/>
    <interval begin="150.00" end="165.00" id="ild_in:nt2,np5" nVehContrib="1" flow="240.00" occupancy="1.78" speed="18.74" length="5.00" nVehEntered="1"/>
    <interval begin="150.00" end="165.00" id="ild_in:nt5,np11" nVehContrib="0" flow="0.00" occupancy="0.00" speed="-1.00" length="-1.00" nVehEntered="0"/>
    <interval begin="150.00" end="165.00" id="ild_in:nt3,np6" nVehContrib="1" flow="240.00" occupancy="1.68" speed="19.87" length="5.00" nVehEntered="1"/>
    <interval begin="165.00" end="180.00" id="ild_in:nt1,nt2" nVehContrib="5" flow="1200.00" occupancy="26.50" speed="9.95" length="5.00" nVehEntered="5"/>
    <interval begin="165.00" end="180.00" id="ild_in:nt1,npc" nVehContrib="2" flow="480.00" occupancy="4.10" speed="16.35" length="5.00" nVehEntered="2"/>
    <interval begin="165.00" end="180.00" id="ild_in:nt1,nt6" nVehContrib="0" flow="0.00" occupancy="0.00" speed="-1.00" length="-1.00" nVehEntered="0"/>
    <interval begin="165.00" end="180.00" id="ild_in:npc,nt3" nVehContrib="1" flow="240.00" occupancy="1.75" speed="19.00" length="5.00" nVehEntered="1"/>
    <interval begin="165.00" end="180.00" id="ild_in:npc,nt5" nVehContrib="1" flow="240.00" occupancy="1.80" speed="18.52" length="5.00" nVehEntered="1"/>
    <interval begin="165.00" end="180.00" id="ild_in:nt5,nt6" nVehContrib="3" flow="720.00" occupancy="67.04" speed="7.99" length="5.00" nVehEntered="3"/>
    <interval begin="165.00" end="180.00" id="ild_in:nt4,nt3" nVehContrib="3" flow="720.00" occupancy="7.52" speed="13.70" length="5.00" nVehEntered="3"/>
    <interval begin="165.00" end="180.00" id="ild_in:nt4,nt5" nVehContrib="4" flow="960.00" occupancy="46.88" speed="5.21" length="5.00" nVehEntered="5"/>
    <interval begin="165.00" end="180.00" id="ild_in:nt3,nt2" nVehContrib="3" flow="720.00" occupancy="5.50" speed="18.29" length="5.00" nVehEntered="3"/>
    <interval begin="165.00" end="180.00" id="ild_in:nt6,np12" nVehContrib="9" flow="2160.00" occupancy="15.89" speed="18.92" length="5.00" nVehEntered="9"/>
    <interval begin="165.00" end="180.00" id="ild_in:nt6,np13" nVehContrib="0" flow="0.00" occupancy="0.00" speed="-1.00" length="-1.00" nVehEntered="0"/>
    <interval begin="165.00" end="180.00" id="ild_in:nt2,np4" nVehContrib="8" flow="1920.00" occupancy="14.63" speed="18.24" length="5.00" nVehEntered="8"/>
    <interval begin="165.00" end="180.00" id="ild_in:nt2,np5" nVehContrib="0" flow="0.00" occupancy="0.00" speed="-1.00" length="-1.00" nVehEntered="0"/>
    <interval begin="165.00" end="180.00" id="ild_in:nt5,np11" nVehContrib="0" flow="0.00" occupancy="0.00" speed="-1.00" length="-1.00" nVehEntered="0"/>
    <interval begin="165.00" end="180.00" id="ild_in:nt3,np6" nVehContrib="5" flow="1200.00" occupancy="11.47" speed="15.34" length="5.00" nVehEntered="5"/>
    <interval begin="180.00" end="195.00" id="ild_in:nt1,nt2" nVehContrib="0" flow="0.00" occupancy="0.00" speed="-1.00" length="-1.00" nVehEntered="0"/>
    <interval begin="180.00" end="195.00" id="ild_in:nt1,npc" nVehContrib="3" flow="720.00" occupancy="6.06" speed="16.75" length="5.00" nVehEntered="3"/>
    <interval begin="180.00" end="195.00" id="ild_in:nt1,nt6" nVehContrib="0" flow="0.00" occupancy="0.00" speed="-1.00" length="-1.00" nVehEntered="0"/>
    <interval begin="180.00" end="195.00" id="ild_in:npc,nt3" nVehContrib="1" flow="240.00" occupancy="1.78" speed="18.69" length="5.00" nVehEntered="1"/>
    <interval begin="180.00" end="195.00" id="ild_in:npc,nt5" nVehContrib="2" flow="480.00" occupancy="3.73" speed="17.86" length="5.00" nVehEntered="2"/>
    <interval begin="180.00" end="195.00" id="ild_in:nt5,nt6" nVehContrib="4" flow="960.00" occupancy="29.78" speed="7.89" length="5.00" nVehEntered="3"/>
    <interval begin="180.00" end="195.00" id="ild_in:nt4,nt3" nVehContrib="2" flow="480.00" occupancy="4.59" speed="15.03" length="5.00" nVehEntered="2"/>
    <interval begin="180.00" end="195.00" id="ild_in:nt4,nt5" nVehContrib="3" flow="720.00" occupancy="46.52" speed="1.74" length="5.00" nVehEntered="2"/>