<?xml version="1.0" encoding="UTF-8"?>

<!-- generated on Sun May  6 19:45:22 2018 by SUMO Version 0.32.0
<?xml version="1.0" encoding="UTF-8"?>

<configuration xmlns:xsi="http://www.w3.org/2001/XMLSchema-instance" xsi:noNamespaceSchemaLocation="http://sumo.dlr.de/xsd/sumoConfiguration.xsd">

    <input>
        <net-file value="./small_grid/data/exp.net.xml"/>
        <route-files value="./small_grid/data/exp_0.rou.xml"/>
        <additional-files value="./small_grid/data/exp.add.xml"/>
    </input>

    <time>
        <begin value="0"/>
        <end value="7200"/>
    </time>

    <processing>
        <time-to-teleport value="-1"/>
    </processing>

    <report>
        <no-warnings value="true"/>
        <no-step-log value="true"/>
    </report>

    <traci_server>
        <remote-port value="8000"/>
    </traci_server>

    <random_number>
        <seed value="92"/>
    </random_number>

</configuration>
-->

<detector xmlns:xsi="http://www.w3.org/2001/XMLSchema-instance" xsi:noNamespaceSchemaLocation="http://sumo.dlr.de/xsd/det_e1_file.xsd">
    <interval begin="0.00" end="15.00" id="ild_out:np1,nt1" nVehContrib="2" flow="480.00" occupancy="6.78" speed="9.85" length="5.00" nVehEntered="2"/>
    <interval begin="0.00" end="15.00" id="ild_out:np2,nt1" nVehContrib="1" flow="240.00" occupancy="3.13" speed="10.63" length="5.00" nVehEntered="1"/>
    <interval begin="0.00" end="15.00" id="ild_out:np3,nt1" nVehContrib="2" flow="480.00" occupancy="5.64" speed="11.95" length="5.00" nVehEntered="2"/>
    <interval begin="0.00" end="15.00" id="ild_out:np8,nt4" nVehContrib="2" flow="480.00" occupancy="5.33" speed="12.54" length="5.00" nVehEntered="2"/>
    <interval begin="0.00" end="15.00" id="ild_out:np9,nt4" nVehContrib="2" flow="480.00" occupancy="5.14" speed="13.00" length="5.00" nVehEntered="2"/>
    <interval begin="0.00" end="15.00" id="ild_out:nt1,nt2" nVehContrib="1" flow="240.00" occupancy="5.57" speed="7.47" length="5.00" nVehEntered="2"/>
    <interval begin="0.00" end="15.00" id="ild_out:nt1,npc" nVehContrib="0" flow="0.00" occupancy="0.38" speed="-1.00" length="-1.00" nVehEntered="1"/>
    <interval begin="0.00" end="15.00" id="ild_out:nt1,nt6" nVehContrib="0" flow="0.00" occupancy="0.00" speed="-1.00" length="-1.00" nVehEntered="0"/>
    <interval begin="0.00" end="15.00" id="ild_out:npc,nt3" nVehContrib="0" flow="0.00" occupancy="0.00" speed="-1.00" length="-1.00" nVehEntered="0"/>
    <interval begin="0.00" end="15.00" id="ild_out:npc,nt5" nVehContrib="0" flow="0.00" occupancy="0.00" speed="-1.00" length="-1.00" nVehEntered="0"/>
    <interval begin="0.00" end="15.00" id="ild_out:nt5,nt6" nVehContrib="0" flow="0.00" occupancy="0.00" speed="-1.00" length="-1.00" nVehEntered="0"/>
    <interval begin="0.00" end="15.00" id="ild_out:nt4,nt3" nVehContrib="1" flow="240.00" occupancy="1.68" speed="19.80" length="5.00" nVehEntered="1"/>
    <interval begin="0.00" end="15.00" id="ild_out:nt4,nt5" nVehContrib="2" flow="480.00" occupancy="11.72" speed="11.01" length="5.00" nVehEntered="2"/>
    <interval begin="0.00" end="15.00" id="ild_out:nt3,nt2" nVehContrib="0" flow="0.00" occupancy="0.00" speed="-1.00" length="-1.00" nVehEntered="0"/>
    <interval begin="15.00" end="30.00" id="ild_out:np1,nt1" nVehContrib="1" flow="240.00" occupancy="3.01" speed="11.07" length="5.00" nVehEntered="1"/>
    <interval begin="15.00" end="30.00" id="ild_out:np2,nt1" nVehContrib="1" flow="240.00" occupancy="3.42" speed="9.76" length="5.00" nVehEntered="1"/>
    <interval begin="15.00" end="30.00" id="ild_out:np3,nt1" nVehContrib="1" flow="240.00" occupancy="2.49" speed="13.37" length="5.00" nVehEntered="1"/>
    <interval begin="15.00" end="30.00" id="ild_out:np8,nt4" nVehContrib="2" flow="480.00" occupancy="5.52" speed="12.08" length="5.00" nVehEntered="2"/>
    <interval begin="15.00" end="30.00" id="ild_out:np9,nt4" nVehContrib="2" flow="480.00" occupancy="5.46" speed="12.23" length="5.00" nVehEntered="2"/>
    <interval begin="15.00" end="30.00" id="ild_out:nt1,nt2" nVehContrib="3" flow="720.00" occupancy="6.91" speed="14.95" length="5.00" nVehEntered="3"/>
    <interval begin="15.00" end="30.00" id="ild_out:nt1,npc" nVehContrib="1" flow="240.00" occupancy="1.34" speed="19.35" length="5.00" nVehEntered="0"/>
    <interval begin="15.00" end="30.00" id="ild_out:nt1,nt6" nVehContrib="4" flow="960.00" occupancy="7.21" speed="18.52" length="5.00" nVehEntered="4"/>
    <interval begin="15.00" end="30.00" id="ild_out:npc,nt3" nVehContrib="1" flow="240.00" occupancy="1.83" speed="18.18" length="5.00" nVehEntered="1"/>
    <interval begin="15.00" end="30.00" id="ild_out:npc,nt5" nVehContrib="0" flow="0.00" occupancy="0.00" speed="-1.00" length="-1.00" nVehEntered="0"/>
    <interval begin="15.00" end="30.00" id="ild_out:nt5,nt6" nVehContrib="4" flow="960.00" occupancy="7.26" speed="18.41" length="5.00" nVehEntered="4"/>
    <interval begin="15.00" end="30.00" id="ild_out:nt4,nt3" nVehContrib="1" flow="240.00" occupancy="1.89" speed="17.61" length="5.00" nVehEntered="1"/>
    <interval begin="15.00" end="30.00" id="ild_out:nt4,nt5" nVehContrib="5" flow="1200.00" occupancy="16.79" speed="16.93" length="5.00" nVehEntered="6"/>
    <interval begin="15.00" end="30.00" id="ild_out:nt3,nt2" nVehContrib="0" flow="0.00" occupancy="0.00" speed="-1.00" length="-1.00" nVehEntered="0"/>
    <interval begin="30.00" end="45.00" id="ild_out:np1,nt1" nVehContrib="2" flow="480.00" occupancy="7.03" speed="9.49" length="5.00" nVehEntered="2"/>
    <interval begin="30.00" end="45.00" id="ild_out:np2,nt1" nVehContrib="1" flow="240.00" occupancy="2.82" speed="11.83" length="5.00" nVehEntered="1"/>
    <interval begin="30.00" end="45.00" id="ild_out:np3,nt1" nVehContrib="2" flow="480.00" occupancy="5.44" speed="12.30" length="5.00" nVehEntered="2"/>
    <interval begin="30.00" end="45.00" id="ild_out:np8,nt4" nVehContrib="2" flow="480.00" occupancy="5.32" speed="12.54" length="5.00" nVehEntered="2"/>
    <interval begin="30.00" end="45.00" id="ild_out:np9,nt4" nVehContrib="2" flow="480.00" occupancy="5.79" speed="11.70" length="5.00" nVehEntered="2"/>
    <interval begin="30.00" end="45.00" id="ild_out:nt1,nt2" nVehContrib="3" flow="720.00" occupancy="76.73" speed="5.48" length="5.00" nVehEntered="2"/>
    <interval begin="30.00" end="45.00" id="ild_out:nt1,npc" nVehContrib="1" flow="240.00" occupancy="1.78" speed="18.76" length="5.00" nVehEntered="1"/>
    <interval begin="30.00" end="45.00" id="ild_out:nt1,nt6" nVehContrib="2" flow="480.00" occupancy="62.93" speed="12.51" length="5.00" nVehEntered="3"/>
    <interval begin="30.00" end="45.00" id="ild_out:npc,nt3" nVehContrib="0" flow="0.00" occupancy="0.00" speed="-1.00" length="-1.00" nVehEntered="0"/>
    <interval begin="30.00" end="45.00" id="ild_out:npc,nt5" nVehContrib="0" flow="0.00" occupancy="0.00" speed="-1.00" length="-1.00" nVehEntered="0"/>
    <interval begin="30.00" end="45.00" id="ild_out:nt5,nt6" nVehContrib="2" flow="480.00" occupancy="3.60" speed="18.52" length="5.00" nVehEntered="2"/>
    <interval begin="30.00" end="45.00" id="ild_out:nt4,nt3" nVehContrib="0" flow="0.00" occupancy="0.00" speed="-1.00" length="-1.00" nVehEntered="0"/>
    <interval begin="30.00" end="45.00" id="ild_out:nt4,nt5" nVehContrib="4" flow="960.00" occupancy="46.46" speed="4.57" length="5.00" nVehEntered="3"/>
    <interval begin="30.00" end="45.00" id="ild_out:nt3,nt2" nVehContrib="1" flow="240.00" occupancy="1.78" speed="18.73" length="5.00" nVehEntered="1"/>
    <interval begin="45.00" end="60.00" id="ild_out:np1,nt1" nVehContrib="1" flow="240.00" occupancy="2.59" speed="12.87" length="5.00" nVehEntered="1"/>
    <interval begin="45.00" end="60.00" id="ild_out:np2,nt1" nVehContrib="1" flow="240.00" occupancy="3.24" speed="10.28" length="5.00" nVehEntered="1"/>
    <interval begin="45.00" end="60.00" id="ild_out:np3,nt1" nVehContrib="2" flow="480.00" occupancy="5.11" speed="13.04" length="5.00" nVehEntered="2"/>
    <interval begin="45.00" end="60.00" id="ild_out:np8,nt4" nVehContrib="2" flow="480.00" occupancy="5.35" speed="12.47" length="5.00" nVehEntered="2"/>
    <interval begin="45.00" end="60.00" id="ild_out:np9,nt4" nVehContrib="2" flow="480.00" occupancy="5.88" speed="11.34" length="5.00" nVehEntered="2"/>
    <interval begin="45.00" end="60.00" id="ild_out:nt1,nt2" nVehContrib="1" flow="240.00" occupancy="75.02" speed="8.91" length="5.00" nVehEntered="2"/>
    <interval begin="45.00" end="60.00" id="ild_out:nt1,npc" nVehContrib="1" flow="240.00" occupancy="1.72" speed="19.42" length="5.00" nVehEntered="1"/>
    <interval begin="45.00" end="60.00" id="ild_out:nt1,nt6" nVehContrib="5" flow="1200.00" occupancy="47.57" speed="7.33" length="5.00" nVehEntered="4"/>
    <interval begin="45.00" end="60.00" id="ild_out:npc,nt3" nVehContrib="1" flow="240.00" occupancy="1.68" speed="19.80" length="5.00" nVehEntered="1"/>
    <interval begin="45.00" end="60.00" id="ild_out:npc,nt5" nVehContrib="1" flow="240.00" occupancy="1.71" speed="19.48" length="5.00" nVehEntered="1"/>
    <interval begin="45.00" end="60.00" id="ild_out:nt5,nt6" nVehContrib="3" flow="720.00" occupancy="6.98" speed="17.11" length="5.00" nVehEntered="4"/>
    <interval begin="45.00" end="60.00" id="ild_out:nt4,nt3" nVehContrib="0" flow="0.00" occupancy="0.00" speed="-1.00" length="-1.00" nVehEntered="0"/>
    <interval begin="45.00" end="60.00" id="ild_out:nt4,nt5" nVehContrib="6" flow="1440.00" occupancy="10.61" speed="18.85" length="5.00" nVehEntered="6"/>
    <interval begin="45.00" end="60.00" id="ild_out:nt3,nt2" nVehContrib="0" flow="0.00" occupancy="0.00" speed="-1.00" length="-1.00" nVehEntered="0"/>
    <interval begin="60.00" end="75.00" id="ild_out:np1,nt1" nVehContrib="2" flow="480.00" occupancy="5.86" speed="11.39" length="5.00" nVehEntered="2"/>
    <interval begin="60.00" end="75.00" id="ild_out:np2,nt1" nVehContrib="1" flow="240.00" occupancy="2.88" speed="11.56" length="5.00" nVehEntered="1"/>
    <interval begin="60.00" end="75.00" id="ild_out:np3,nt1" nVehContrib="1" flow="240.00" occupancy="2.48" speed="13.46" length="5.00" nVehEntered="1"/>
    <interval begin="60.00" end="75.00" id="ild_out:np8,nt4" nVehContrib="2" flow="480.00" occupancy="5.27" speed="12.69" length="5.00" nVehEntered="2"/>
    <interval begin="60.00" end="75.00" id="ild_out:np9,nt4" nVehContrib="1" flow="240.00" occupancy="52.57" speed="9.71" length="5.00" nVehEntered="2"/>
    <interval begin="60.00" end="75.00" id="ild_out:nt1,nt2" nVehContrib="7" flow="1680.00" occupancy="23.43" speed="9.42" length="5.00" nVehEntered="6"/>
    <interval begin="60.00" end="75.00" id="ild_out:nt1,npc" nVehContrib="0" flow="0.00" occupancy="0.00" speed="-1.00" length="-1.00" nVehEntered="0"/>
    <interval begin="60.00" end="75.00" id="ild_out:nt1,nt6" nVehContrib="8" flow="1920.00" occupancy="15.76" speed="17.08" length="5.00" nVehEntered="8"/>
    <interval begin="60.00" end="75.00" id="ild_out:npc,nt3" nVehContrib="0" flow="0.00" occupancy="0.00" speed="-1.00" length="-1.00" nVehEntered="0"/>
    <interval begin="60.00" end="75.00" id="ild_out:npc,nt5" nVehContrib="0" flow="0.00" occupancy="0.00" speed="-1.00" length="-1.00" nVehEntered="0"/>
    <interval begin="60.00" end="75.00" id="ild_out:nt5,nt6" nVehContrib="1" flow="240.00" occupancy="83.51" speed="9.89" length="5.00" nVehEntered="1"/>
    <interval begin="60.00" end="75.00" id="ild_out:nt4,nt3" nVehContrib="1" flow="240.00" occupancy="1.70" speed="19.63" length="5.00" nVehEntered="1"/>
    <interval begin="60.00" end="75.00" id="ild_out:nt4,nt5" nVehContrib="4" flow="960.00" occupancy="10.04" speed="14.47" length="5.00" nVehEntered="4"/>
    <interval begin="60.00" end="75.00" id="ild_out:nt3,nt2" nVehContrib="0" flow="0.00" occupancy="0.00" speed="-1.00" length="-1.00" nVehEntered="0"/>
    <interval begin="75.00" end="90.00" id="ild_out:np1,nt1" nVehContrib="1" flow="240.00" occupancy="3.25" speed="10.25" length="5.00" nVehEntered="1"/>
    <interval begin="75.00" end="90.00" id="ild_out:np2,nt1" nVehContrib="1" flow="240.00" occupancy="3.38" speed="9.86" length="5.00" nVehEntered="1"/>
    <interval begin="75.00" end="90.00" id="ild_out:np3,nt1" nVehContrib="2" flow="480.00" occupancy="6.28" speed="10.62" length="5.00" nVehEntered="2"/>
    <interval begin="75.00" end="90.00" id="ild_out:np8,nt4" nVehContrib="1" flow="240.00" occupancy="4.29" speed="11.85" length="5.00" nVehEntered="2"/>
    <interval begin="75.00" end="90.00" id="ild_out:np9,nt4" nVehContrib="4" flow="960.00" occupancy="46.07" speed="6.92" length="5.00" nVehEntered="3"/>
    <interval begin="75.00" end="90.00" id="ild_out:nt1,nt2" nVehContrib="8" flow="1920.00" occupancy="18.98" speed="15.67" length="5.00" nVehEntered="8"/>
    <interval begin="75.00" end="90.00" id="ild_out:nt1,npc" nVehContrib="2" flow="480.00" occupancy="3.76" speed="17.75" length="5.00" nVehEntered="2"/>
    <interval begin="75.00" end="90.00" id="ild_out:nt1,nt6" nVehContrib="3" flow="720.00" occupancy="60.20" speed="14.24" length="5.00" nVehEntered="4"/>
    <interval begin="75.00" end="90.00" id="ild_out:npc,nt3" nVehContrib="0" flow="0.00" occupancy="0.00" speed="-1.00" length="-1.00" nVehEntered="0"/>
    <interval begin="75.00" end="90.00" id="ild_out:npc,nt5" nVehContrib="0" flow="0.00" occupancy="0.00" speed="-1.00" length="-1.00" nVehEntered="0"/>
    <interval begin="75.00" end="90.00" id="ild_out:nt5,nt6" nVehContrib="3" flow="720.00" occupancy="46.45" speed="4.35" length="5.00" nVehEntered="2"/>
    <interval begin="75.00" end="90.00" id="ild_out:nt4,nt3" nVehContrib="4" flow="960.00" occupancy="7.12" speed="18.78" length="5.00" nVehEntered="4"/>
    <interval begin="75.00" end="90.00" id="ild_out:nt4,nt5" nVehContrib="0" flow="0.00" occupancy="99.34" speed="-1.00" length="-1.00" nVehEntered="1"/>
    <interval begin="75.00" end="90.00" id="ild_out:nt3,nt2" nVehContrib="0" flow="0.00" occupancy="0.00" speed="-1.00" length="-1.00" nVehEntered="0"/>
    <interval begin="90.00" end="105.00" id="ild_out:np1,nt1" nVehContrib="2" flow="480.00" occupancy="5.81" speed="11.48" length="5.00" nVehEntered="2"/>
    <interval begin="90.00" end="105.00" id="ild_out:np2,nt1" nVehContrib="1" flow="240.00" occupancy="3.11" speed="10.72" length="5.00" nVehEntered="1"/>
    <interval begin="90.00" end="105.00" id="ild_out:np3,nt1" nVehContrib="1" flow="240.00" occupancy="3.36" speed="9.92" length="5.00" nVehEntered="1"/>
    <interval begin="90.00" end="105.00" id="ild_out:np8,nt4" nVehContrib="2" flow="480.00" occupancy="6.28" speed="12.47" length="5.00" nVehEntered="2"/>
    <interval begin="90.00" end="105.00" id="ild_out:np9,nt4" nVehContrib="2" flow="480.00" occupancy="5.94" speed="11.33" length="5.00" nVehEntered="2"/>
    <interval begin="90.00" end="105.00" id="ild_out:nt1,nt2" nVehContrib="0" flow="0.00" occupancy="96.21" speed="-1.00" length="-1.00" nVehEntered="1"/>
    <interval begin="90.00" end="105.00" id="ild_out:nt1,npc" nVehContrib="1" flow="240.00" occupancy="3.14" speed="18.61" length="5.00" nVehEntered="2"/>
    <interval begin="90.00" end="105.00" id="ild_out:nt1,nt6" nVehContrib="0" flow="0.00" occupancy="100.00" speed="-1.00" length="-1.00" nVehEntered="0"/>
    <interval begin="90.00" end="105.00" id="ild_out:npc,nt3" nVehContrib="1" flow="240.00" occupancy="1.80" speed="18.56" length="5.00" nVehEntered="1"/>
    <interval begin="90.00" end="105.00" id="ild_out:npc,nt5" nVehContrib="1" flow="240.00" occupancy="1.71" speed="19.48" length="5.00" nVehEntered="1"/>
    <interval begin="90.00" end="105.00" id="ild_out:nt5,nt6" nVehContrib="1" flow="240.00" occupancy="1.86" speed="17.94" length="5.00" nVehEntered="1"/>
    <interval begin="90.00" end="105.00" id="ild_out:nt4,nt3" nVehContrib="2" flow="480.00" occupancy="3.55" speed="18.79" length="5.00" nVehEntered="2"/>
    <interval begin="90.00" end="105.00" id="ild_out:nt4,nt5" nVehContrib="2" flow="480.00" occupancy="74.82" speed="2.00" length="5.00" nVehEntered="2"/>
    <interval begin="90.00" end="105.00" id="ild_out:nt3,nt2" nVehContrib="2" flow="480.00" occupancy="3.46" speed="19.26" length="5.00" nVehEntered="2"/>
    <interval begin="105.00" end="120.00" id="ild_out:np1,nt1" nVehContrib="1" flow="240.00" occupancy="2.67" speed="12.47" length="5.00" nVehEntered="1"/>
    <interval begin="105.00" end="120.00" id="ild_out:np2,nt1" nVehContrib="1" flow="240.00" occupancy="2.79" speed="11.94" length="5.00" nVehEntered="1"/>
    <interval begin="105.00" end="120.00" id="ild_out:np3,nt1" nVehContrib="2" flow="480.00" occupancy="5.87" speed="11.39" length="5.00" nVehEntered="2"/>
    <interval begin="105.00" end="120.00" id="ild_out:np8,nt4" nVehContrib="2" flow="480.00" occupancy="3.49" speed="11.34" length="5.00" nVehEntered="1"/>
    <interval begin="105.00" end="120.00" id="ild_out:np9,nt4" nVehContrib="2" flow="480.00" occupancy="5.63" speed="11.85" length="5.00" nVehEntered="2"/>
    <interval begin="105.00" end="120.00" id="ild_out:nt1,nt2" nVehContrib="5" flow="1200.00" occupancy="49.56" speed="7.96" length="5.00" nVehEntered="5"/>
    <interval begin="105.00" end="120.00" id="ild_out:nt1,npc" nVehContrib="1" flow="240.00" occupancy="0.35" speed="19.63" length="5.00" nVehEntered="0"/>
    <interval begin="105.00" end="120.00" id="ild_out:nt1,nt6" nVehContrib="0" flow="0.00" occupancy="100.00" speed="-1.00" length="-1.00" nVehEntered="0"/>
    <interval begin="105.00" end="120.00" id="ild_out:npc,nt3" nVehContrib="1" flow="240.00" occupancy="1.80" speed="18.48" length="5.00" nVehEntered="1"/>
    <interval begin="105.00" end="120.00" id="ild_out:npc,nt5" nVehContrib="1" flow="240.00" occupancy="1.76" speed="18.94" length="5.00" nVehEntered="1"/>
    <interval begin="105.00" end="120.00" id="ild_out:nt5,nt6" nVehContrib="1" flow="240.00" occupancy="1.88" speed="17.74" length="5.00" nVehEntered="1"/>
    <interval begin="105.00" end="120.00" id="ild_out:nt4,nt3" nVehContrib="2" flow="480.00" occupancy="3.66" speed="18.23" length="5.00" nVehEntered="2"/>
    <interval begin="105.00" end="120.00" id="ild_out:nt4,nt5" nVehContrib="1" flow="240.00" occupancy="90.62" speed="6.38" length="5.00" nVehEntered="1"/>
    <interval begin="105.00" end="120.00" id="ild_out:nt3,nt2" nVehContrib="2" flow="480.00" occupancy="3.73" speed="17.88" length="5.00" nVehEntered="2"/>
    <interval begin="120.00" end="135.00" id="ild_out:np1,nt1" nVehContrib="2" flow="480.00" occupancy="6.15" speed="10.88" length="5.00" nVehEntered="2"/>
    <interval begin="120.00" end="135.00" id="ild_out:np2,nt1" nVehContrib="1" flow="240.00" occupancy="3.50" speed="9.53" length="5.00" nVehEntered="1"/>
    <interval begin="120.00" end="135.00" id="ild_out:np3,nt1" nVehContrib="1" flow="240.00" occupancy="3.09" speed="10.78" length="5.00" nVehEntered="1"/>
    <interval begin="120.00" end="135.00" id="ild_out:np8,nt4" nVehContrib="2" flow="480.00" occupancy="70.36" speed="2.34" length="5.00" nVehEntered="2"/>
    <interval begin="120.00" end="135.00" id="ild_out:np9,nt4" nVehContrib="2" flow="480.00" occupancy="6.27" speed="10.72" length="5.00" nVehEntered="2"/>
    <interval begin="120.00" end="135.00" id="ild_out:nt1,nt2" nVehContrib="9" flow="2160.00" occupancy="17.51" speed="17.89" length="5.00" nVehEntered="9"/>
    <interval begin="120.00" end="135.00" id="ild_out:nt1,npc" nVehContrib="1" flow="240.00" occupancy="1.68" speed="19.81" length="5.00" nVehEntered="1"/>
    <interval begin="120.00" end="135.00" id="ild_out:nt1,nt6" nVehContrib="0" flow="0.00" occupancy="100.00" speed="-1.00" length="-1.00" nVehEntered="0"/>
    <interval begin="120.00" end="135.00" id="ild_out:npc,nt3" nVehContrib="0" flow="0.00" occupancy="0.00" speed="-1.00" length="-1.00" nVehEntered="0"/>
    <interval begin="120.00" end="135.00" id="ild_out:npc,nt5" nVehContrib="0" flow="0.00" occupancy="0.00" speed="-1.00" length="-1.00" nVehEntered="0"/>
    <interval begin="120.00" end="135.00" id="ild_out:nt5,nt6" nVehContrib="6" flow="1440.00" occupancy="10.60" speed="18.90" length="5.00" nVehEntered="6"/>
    <interval begin="120.00" end="135.00" id="ild_out:nt4,nt3" nVehContrib="1" flow="240.00" occupancy="1.74" speed="19.18" length="5.00" nVehEntered="1"/>
    <interval begin="120.00" end="135.00" id="ild_out:nt4,nt5" nVehContrib="5" flow="1200.00" occupancy="36.27" speed="3.54" length="5.00" nVehEntered="4"/>
    <interval begin="120.00" end="135.00" id="ild_out:nt3,nt2" nVehContrib="1" flow="240.00" occupancy="1.74" speed="19.12" length="5.00" nVehEntered="1"/>
    <interval begin="135.00" end="150.00" id="ild_out:np1,nt1" nVehContrib="1" flow="240.00" occupancy="4.28" speed="7.78" length="5.00" nVehEntered="1"/>
    <interval begin="135.00" end="150.00" id="ild_out:np2,nt1" nVehContrib="0" flow="0.00" occupancy="77.69" speed="-1.00" length="-1.00" nVehEntered="1"/>
    <interval begin="135.00" end="150.00" id="ild_out:np3,nt1" nVehContrib="2" flow="480.00" occupancy="5.80" speed="11.50" length="5.00" nVehEntered="2"/>
    <interval begin="135.00" end="150.00" id="ild_out:np8,nt4" nVehContrib="1" flow="240.00" occupancy="44.69" speed="10.81" length="5.00" nVehEntered="2"/>
    <interval begin="135.00" end="150.00" id="ild_out:np9,nt4" nVehContrib="2" flow="480.00" occupancy="6.04" speed="11.05" length="5.00" nVehEntered="2"/>
    <interval begin="135.00" end="150.00" id="ild_out:nt1,nt2" nVehContrib="9" flow="2160.00" occupancy="14.94" speed="18.80" length="5.00" nVehEntered="8"/>
    <interval begin="135.00" end="150.00" id="ild_out:nt1,npc" nVehContrib="1" flow="240.00" occupancy="1.80" speed="18.48" length="5.00" nVehEntered="1"/>
    <interval begin="135.00" end="150.00" id="ild_out:nt1,nt6" nVehContrib="0" flow="0.00" occupancy="100.00" speed="-1.00" length="-1.00" nVehEntered="0"/>
    <interval begin="135.00" end="150.00" id="ild_out:npc,nt3" nVehContrib="0" flow="0.00" occupancy="0.00" speed="-1.00" length="-1.00" nVehEntered="0"/>
    <interval begin="135.00" end="150.00" id="ild_out:npc,nt5" nVehContrib="1" flow="240.00" occupancy="1.76" speed="18.99" length="5.00" nVehEntered="1"/>
    <interval begin="135.00" end="150.00" id="ild_out:nt5,nt6" nVehContrib="2" flow="480.00" occupancy="3.48" speed="19.17" length="5.00" nVehEntered="2"/>
    <interval begin="135.00" end="150.00" id="ild_out:nt4,nt3" nVehContrib="0" flow="0.00" occupancy="0.00" speed="-1.00" length="-1.00" nVehEntered="0"/>
    <interval begin="135.00" end="150.00" id="ild_out:nt4,nt5" nVehContrib="1" flow="240.00" occupancy="75.81" speed="5.26" length="5.00" nVehEntered="2"/>
    <interval begin="135.00" end="150.00" id="ild_out:nt3,nt2" nVehContrib="0" flow="0.00" occupancy="0.00" speed="-1.00" length="-1.00" nVehEntered="0"/>
    <interval begin="150.00" end="165.00" id="ild_out:np1,nt1" nVehContrib="2" flow="480.00" occupancy="51.58" speed="5.57" length="5.00" nVehEntered="2"/>
    <interval begin="150.00" end="165.00" id="ild_out:np2,nt1" nVehContrib="0" flow="0.00" occupancy="100.00" speed="-1.00" length="-1.00" nVehEntered="0"/>
    <interval begin="150.00" end="165.00" id="ild_out:np3,nt1" nVehContrib="2" flow="480.00" occupancy="5.52" speed="12.28" length="5.00" nVehEntered="2"/>
    <interval begin="150.00" end="165.00" id="ild_out:np8,nt4" nVehContrib="2" flow="480.00" occupancy="75.97" speed="2.18" length="5.00" nVehEntered="1"/>
    <interval begin="150.00" end="165.00" id="ild_out:np9,nt4" nVehContrib="2" flow="480.00" occupancy="6.70" speed="9.96" length="5.00" nVehEntered="2"/>
    <interval begin="150.00" end="165.00" id="ild_out:nt1,nt2" nVehContrib="6" flow="1440.00" occupancy="11.08" speed="18.10" length="5.00" nVehEntered="6"/>
    <interval begin="150.00" end="165.00" id="ild_out:nt1,npc" nVehContrib="1" flow="240.00" occupancy="1.83" speed="18.23" length="5.00" nVehEntered="1"/>
    <interval begin="150.00" end="165.00" id="ild_out:nt1,nt6" nVehContrib="0" flow="0.00" occupancy="100.00" speed="-1.00" length="-1.00" nVehEntered="0"/>
    <interval begin="150.00" end="165.00" id="ild_out:npc,nt3" nVehContrib="1" flow="240.00" occupancy="1.68" speed="19.81" length="5.00" nVehEntered="1"/>
    <interval begin="150.00" end="165.00" id="ild_out:npc,nt5" nVehContrib="0" flow="0.00" occupancy="0.00" speed="-1.00" length="-1.00" nVehEntered="0"/>
    <interval begin="150.00" end="165.00" id="ild_out:nt5,nt6" nVehContrib="0" flow="0.00" occupancy="0.00" speed="-1.00" length="-1.00" nVehEntered="0"/>
    <interval begin="150.00" end="165.00" id="ild_out:nt4,nt3" nVehContrib="1" flow="240.00" occupancy="1.85" speed="18.00" length="5.00" nVehEntered="1"/>
    <interval begin="150.00" end="165.00" id="ild_out:nt4,nt5" nVehContrib="0" flow="0.00" occupancy="100.00" speed="-1.00" length="-1.00" nVehEntered="0"/>
    <interval begin="150.00" end="165.00" id="ild_out:nt3,nt2" nVehContrib="1" flow="240.00" occupancy="2.09" speed="15.95" length="5.00" nVehEntered="1"/>
    <interval begin="165.00" end="180.00" id="ild_out:np1,nt1" nVehContrib="1" flow="240.00" occupancy="3.57" speed="9.34" length="5.00" nVehEntered="1"/>
    <interval begin="165.00" end="180.00" id="ild_out:np2,nt1" nVehContrib="0" flow="0.00" occupancy="100.00" speed="-1.00" length="-1.00" nVehEntered="0"/>
    <interval begin="165.00" end="180.00" id="ild_out:np3,nt1" nVehContrib="1" flow="240.00" occupancy="3.11" speed="10.71" length="5.00" nVehEntered="1"/>
    <interval begin="165.00" end="180.00" id="ild_out:np8,nt4" nVehContrib="1" flow="240.00" occupancy="81.78" speed="3.16" length="5.00" nVehEntered="2"/>
    <interval begin="165.00" end="180.00" id="ild_out:np9,nt4" nVehContrib="2" flow="480.00" occupancy="6.03" speed="11.66" length="5.00" nVehEntered="2"/>
    <interval begin="165.00" end="180.00" id="ild_out:nt1,nt2" nVehContrib="2" flow="480.00" occupancy="49.07" speed="10.70" length="5.00" nVehEntered="3"/>
    <interval begin="165.00" end="180.00" id="ild_out:nt1,npc" nVehContrib="3" flow="720.00" occupancy="5.29" speed="18.94" length="5.00" nVehEntered="3"/>
    <interval begin="165.00" end="180.00" id="ild_out:nt1,nt6" nVehContrib="4" flow="960.00" occupancy="48.26" speed="5.92" length="5.00" nVehEntered="4"/>
    <interval begin="165.00" end="180.00" id="ild_out:npc,nt3" nVehContrib="1" flow="240.00" occupancy="1.81" speed="18.39" length="5.00" nVehEntered="1"/>
    <interval begin="165.00" end="180.00" id="ild_out:npc,nt5" nVehContrib="1" flow="240.00" occupancy="1.74" speed="19.18" length="5.00" nVehEntered="1"/>
    <interval begin="165.00" end="180.00" id="ild_out:nt5,nt6" nVehContrib="0" flow="0.00" occupancy="0.00" speed="-1.00" length="-1.00" nVehEntered="0"/>
    <interval begin="165.00" end="180.00" id="ild_out:nt4,nt3" nVehContrib="0" flow="0.00" occupancy="0.00" speed="-1.00" length="-1.00" nVehEntered="0"/>
    <interval begin="165.00" end="180.00" id="ild_out:nt4,nt5" nVehContrib="0" flow="0.00" occupancy="100.00" speed="-1.00" length="-1.00" nVehEntered="0"/>
    <interval begin="165.00" end="180.00" id="ild_out:nt3,nt2" nVehContrib="0" flow="0.00" occupancy="0.00" speed="-1.00" length="-1.00" nVehEntered="0"/>
    <interval begin="180.00" end="195.00" id="ild_out:np1,nt1" nVehContrib="0" flow="0.00" occupancy="76.50" speed="-1.00" length="-1.00" nVehEntered="1"/>
    <interval begin="180.00" end="195.00" id="ild_out:np2,nt1" nVehContrib="3" flow="720.00" occupancy="58.34" speed="2.82" length="5.00" nVehEntered="3"/>
    <interval begin="180.00" end="195.00" id="ild_out:np3,nt1" nVehContrib="2" flow="480.00" occupancy="5.95" speed="11.24" length="5.00" nVehEntered="2"/>
    <interval begin="180.00" end="195.00" id="ild_out:np8,nt4" nVehContrib="0" flow="0.00" occupancy="100.00" speed="-1.00" length="-1.00" nVehEntered="0"/>
    <interval begin="180.00" end="195.00" id="ild_out:np9,nt4" nVehContrib="0" flow="0.00" occupancy="75.30" speed="-1.00" length="-1.00" nVehEntered="1"/>
    <interval begin="180.00" end="195.00" id="ild_out:nt1,nt2" nVehContrib="3" flow="720.00" occupancy="76.21" speed="5.00" length="5.00" nVehEntered="2"/>
    <interval begin="180.00" end="195.00" id="ild_out:nt1,npc" nVehContrib="2" flow="480.00" occupancy="3.67" speed="18.20" length="5.00" nVehEntered="2"/>
    <interval begin="180.00" end="195.00" id="ild_out:nt1,nt6" nVehContrib="0" flow="0.00" occupancy="100.00" speed="-1.00" length="-1.00" nVehEntered="0"/>
    <interval begin="180.00" end="195.00" id="ild_out:npc,nt3" nVehContrib="2" flow="480.00" occupancy="3.72" speed="17.94" length="5.00" nVehEntered="2"/>
    <interval begin="180.00" end="195.00" id="ild_out:npc,nt5" nVehContrib="0" flow="0.00" occupancy="0.00" speed="-1.00" length="-1.00" nVehEntered="0"/>
    <interval begin="180.00" end="195.00" id="ild_out:nt5,nt6" nVehContrib="0" flow="0.00" occupancy="0.00" speed="-1.00" length="-1.00" nVehEntered="0"/>
    <interval begin="180.00" end="195.00" id="ild_out:nt4,nt3" nVehContrib="0" flow="0.00" occupancy="0.00" speed="-1.00" length="-1.00" nVehEntered="0"/>
    <interval begin="180.00" end="195.00" id="ild_out:nt4,nt5" nVehContrib="0" flow="0.00" occupancy="100.00" speed="-1.00" length="-1.00" nVehEntered="0"/>
    <interval begin="180.00" end="195.00" id="ild_out:nt3,nt2" nVehContrib="1" flow="240.00" occupancy="1.67" speed="19.93" length="5.00" nVehEntered="1"/>
    <interval begin="195.00" end="210.00" id="ild_out:np1,nt1" nVehContrib="0" flow="0.00" occupancy="100.00" speed="-1.00" length="-1.00" nVehEntered="0"/>
    <interval begin="195.00" end="210.00" id="ild_out:np2,nt1" nVehContrib="0" flow="0.00" occupancy="100.00" speed="-1.00" length="-1.00" nVehEntered="0"/>
    <interval begin="195.00" end="210.00" id="ild_out:np3,nt1" nVehContrib="1" flow="240.00" occupancy="3.20" speed="10.42" length="5.00" nVehEntered="1"/>
    <interval begin="195.00" end="210.00" id="ild_out:np8,nt4" nVehContrib="0" flow="0.00" occupancy="100.00" speed="-1.00" length="-1.00" nVehEntered="0"/>