<?xml version="1.0" encoding="UTF-8"?>

<!-- generated on Wed May  9 13:17:30 2018 by SUMO Version 0.32.0
<?xml version="1.0" encoding="UTF-8"?>

<configuration xmlns:xsi="http://www.w3.org/2001/XMLSchema-instance" xsi:noNamespaceSchemaLocation="http://sumo.dlr.de/xsd/sumoConfiguration.xsd">

    <input>
        <net-file value="./small_grid/data/exp.net.xml"/>
        <route-files value="./small_grid/data/exp_0.rou.xml"/>
        <additional-files value="./small_grid/data/exp.add.xml"/>
    </input>

    <time>
        <begin value="0"/>
        <end value="7200"/>
    </time>

    <processing>
        <time-to-teleport value="-1"/>
    </processing>

    <report>
        <no-warnings value="true"/>
        <no-step-log value="true"/>
    </report>

    <traci_server>
        <remote-port value="8000"/>
    </traci_server>

    <random_number>
        <seed value="42"/>
    </random_number>

</configuration>
-->

<detector xmlns:xsi="http://www.w3.org/2001/XMLSchema-instance" xsi:noNamespaceSchemaLocation="http://sumo.dlr.de/xsd/det_e1_file.xsd">
    <interval begin="0.00" end="15.00" id="ild_in:nt1,nt2" nVehContrib="2" flow="480.00" occupancy="14.31" speed="10.85" length="5.00" nVehEntered="2"/>
    <interval begin="0.00" end="15.00" id="ild_in:nt1,npc" nVehContrib="0" flow="0.00" occupancy="0.00" speed="-1.00" length="-1.00" nVehEntered="0"/>
    <interval begin="0.00" end="15.00" id="ild_in:nt1,nt6" nVehContrib="0" flow="0.00" occupancy="0.00" speed="-1.00" length="-1.00" nVehEntered="0"/>
    <interval begin="0.00" end="15.00" id="ild_in:npc,nt3" nVehContrib="0" flow="0.00" occupancy="0.00" speed="-1.00" length="-1.00" nVehEntered="0"/>
    <interval begin="0.00" end="15.00" id="ild_in:npc,nt5" nVehContrib="0" flow="0.00" occupancy="0.00" speed="-1.00" length="-1.00" nVehEntered="0"/>
    <interval begin="0.00" end="15.00" id="ild_in:nt5,nt6" nVehContrib="0" flow="0.00" occupancy="0.00" speed="-1.00" length="-1.00" nVehEntered="0"/>
    <interval begin="0.00" end="15.00" id="ild_in:nt4,nt3" nVehContrib="0" flow="0.00" occupancy="0.00" speed="-1.00" length="-1.00" nVehEntered="0"/>
    <interval begin="0.00" end="15.00" id="ild_in:nt4,nt5" nVehContrib="2" flow="480.00" occupancy="17.77" speed="7.57" length="5.00" nVehEntered="2"/>
    <interval begin="0.00" end="15.00" id="ild_in:nt3,nt2" nVehContrib="0" flow="0.00" occupancy="0.00" speed="-1.00" length="-1.00" nVehEntered="0"/>
    <interval begin="0.00" end="15.00" id="ild_in:nt6,np12" nVehContrib="0" flow="0.00" occupancy="0.00" speed="-1.00" length="-1.00" nVehEntered="0"/>
    <interval begin="0.00" end="15.00" id="ild_in:nt6,np13" nVehContrib="0" flow="0.00" occupancy="0.00" speed="-1.00" length="-1.00" nVehEntered="0"/>
    <interval begin="0.00" end="15.00" id="ild_in:nt2,np4" nVehContrib="0" flow="0.00" occupancy="0.00" speed="-1.00" length="-1.00" nVehEntered="0"/>
    <interval begin="0.00" end="15.00" id="ild_in:nt2,np5" nVehContrib="0" flow="0.00" occupancy="0.00" speed="-1.00" length="-1.00" nVehEntered="0"/>
    <interval begin="0.00" end="15.00" id="ild_in:nt5,np11" nVehContrib="0" flow="0.00" occupancy="0.00" speed="-1.00" length="-1.00" nVehEntered="0"/>
    <interval begin="0.00" end="15.00" id="ild_in:nt3,np6" nVehContrib="0" flow="0.00" occupancy="0.00" speed="-1.00" length="-1.00" nVehEntered="0"/>
    <interval begin="15.00" end="30.00" id="ild_in:nt1,nt2" nVehContrib="1" flow="240.00" occupancy="7.70" speed="4.33" length="5.00" nVehEntered="1"/>
    <interval begin="15.00" end="30.00" id="ild_in:nt1,npc" nVehContrib="2" flow="480.00" occupancy="4.04" speed="16.85" length="5.00" nVehEntered="2"/>
    <interval begin="15.00" end="30.00" id="ild_in:nt1,nt6" nVehContrib="0" flow="0.00" occupancy="0.00" speed="-1.00" length="-1.00" nVehEntered="0"/>
    <interval begin="15.00" end="30.00" id="ild_in:npc,nt3" nVehContrib="0" flow="0.00" occupancy="0.00" speed="-1.00" length="-1.00" nVehEntered="0"/>
    <interval begin="15.00" end="30.00" id="ild_in:npc,nt5" nVehContrib="1" flow="240.00" occupancy="1.74" speed="19.16" length="5.00" nVehEntered="1"/>
    <interval begin="15.00" end="30.00" id="ild_in:nt5,nt6" nVehContrib="4" flow="960.00" occupancy="6.92" speed="19.26" length="5.00" nVehEntered="4"/>
    <interval begin="15.00" end="30.00" id="ild_in:nt4,nt3" nVehContrib="2" flow="480.00" occupancy="4.06" speed="16.70" length="5.00" nVehEntered="2"/>
    <interval begin="15.00" end="30.00" id="ild_in:nt4,nt5" nVehContrib="3" flow="720.00" occupancy="13.61" speed="11.81" length="5.00" nVehEntered="4"/>
    <interval begin="15.00" end="30.00" id="ild_in:nt3,nt2" nVehContrib="0" flow="0.00" occupancy="0.00" speed="-1.00" length="-1.00" nVehEntered="0"/>
    <interval begin="15.00" end="30.00" id="ild_in:nt6,np12" nVehContrib="0" flow="0.00" occupancy="0.00" speed="-1.00" length="-1.00" nVehEntered="0"/>
    <interval begin="15.00" end="30.00" id="ild_in:nt6,np13" nVehContrib="3" flow="720.00" occupancy="7.70" speed="13.12" length="5.00" nVehEntered="3"/>
    <interval begin="15.00" end="30.00" id="ild_in:nt2,np4" nVehContrib="4" flow="960.00" occupancy="7.16" speed="18.63" length="5.00" nVehEntered="4"/>
    <interval begin="15.00" end="30.00" id="ild_in:nt2,np5" nVehContrib="0" flow="0.00" occupancy="0.00" speed="-1.00" length="-1.00" nVehEntered="0"/>
    <interval begin="15.00" end="30.00" id="ild_in:nt5,np11" nVehContrib="0" flow="0.00" occupancy="0.00" speed="-1.00" length="-1.00" nVehEntered="0"/>
    <interval begin="15.00" end="30.00" id="ild_in:nt3,np6" nVehContrib="1" flow="240.00" occupancy="1.76" speed="18.95" length="5.00" nVehEntered="1"/>
    <interval begin="30.00" end="45.00" id="ild_in:nt1,nt2" nVehContrib="3" flow="720.00" occupancy="6.50" speed="15.47" length="5.00" nVehEntered="3"/>
    <interval begin="30.00" end="45.00" id="ild_in:nt1,npc" nVehContrib="0" flow="0.00" occupancy="0.00" speed="-1.00" length="-1.00" nVehEntered="0"/>
    <interval begin="30.00" end="45.00" id="ild_in:nt1,nt6" nVehContrib="0" flow="0.00" occupancy="0.00" speed="-1.00" length="-1.00" nVehEntered="0"/>
    <interval begin="30.00" end="45.00" id="ild_in:npc,nt3" nVehContrib="1" flow="240.00" occupancy="1.77" speed="18.81" length="5.00" nVehEntered="1"/>
    <interval begin="30.00" end="45.00" id="ild_in:npc,nt5" nVehContrib="0" flow="0.00" occupancy="0.00" speed="-1.00" length="-1.00" nVehEntered="0"/>
    <interval begin="30.00" end="45.00" id="ild_in:nt5,nt6" nVehContrib="5" flow="1200.00" occupancy="10.70" speed="16.17" length="5.00" nVehEntered="5"/>
    <interval begin="30.00" end="45.00" id="ild_in:nt4,nt3" nVehContrib="1" flow="240.00" occupancy="1.74" speed="19.16" length="5.00" nVehEntered="1"/>
    <interval begin="30.00" end="45.00" id="ild_in:nt4,nt5" nVehContrib="2" flow="480.00" occupancy="6.45" speed="6.03" length="5.00" nVehEntered="1"/>
    <interval begin="30.00" end="45.00" id="ild_in:nt3,nt2" nVehContrib="1" flow="240.00" occupancy="1.75" speed="19.00" length="5.00" nVehEntered="1"/>
    <interval begin="30.00" end="45.00" id="ild_in:nt6,np12" nVehContrib="4" flow="960.00" occupancy="10.22" speed="13.47" length="5.00" nVehEntered="4"/>
    <interval begin="30.00" end="45.00" id="ild_in:nt6,np13" nVehContrib="1" flow="240.00" occupancy="1.91" speed="17.44" length="5.00" nVehEntered="1"/>
    <interval begin="30.00" end="45.00" id="ild_in:nt2,np4" nVehContrib="1" flow="240.00" occupancy="1.87" speed="17.86" length="5.00" nVehEntered="1"/>
    <interval begin="30.00" end="45.00" id="ild_in:nt2,np5" nVehContrib="0" flow="0.00" occupancy="0.00" speed="-1.00" length="-1.00" nVehEntered="0"/>
    <interval begin="30.00" end="45.00" id="ild_in:nt5,np11" nVehContrib="1" flow="240.00" occupancy="1.88" speed="17.76" length="5.00" nVehEntered="1"/>
    <interval begin="30.00" end="45.00" id="ild_in:nt3,np6" nVehContrib="0" flow="0.00" occupancy="0.00" speed="-1.00" length="-1.00" nVehEntered="0"/>
    <interval begin="45.00" end="60.00" id="ild_in:nt1,nt2" nVehContrib="2" flow="480.00" occupancy="4.88" speed="13.65" length="5.00" nVehEntered="2"/>
    <interval begin="45.00" end="60.00" id="ild_in:nt1,npc" nVehContrib="2" flow="480.00" occupancy="4.92" speed="13.60" length="5.00" nVehEntered="2"/>
    <interval begin="45.00" end="60.00" id="ild_in:nt1,nt6" nVehContrib="2" flow="480.00" occupancy="3.91" speed="17.07" length="5.00" nVehEntered="2"/>
    <interval begin="45.00" end="60.00" id="ild_in:npc,nt3" nVehContrib="1" flow="240.00" occupancy="1.89" speed="17.61" length="5.00" nVehEntered="1"/>
    <interval begin="45.00" end="60.00" id="ild_in:npc,nt5" nVehContrib="0" flow="0.00" occupancy="0.00" speed="-1.00" length="-1.00" nVehEntered="0"/>
    <interval begin="45.00" end="60.00" id="ild_in:nt5,nt6" nVehContrib="6" flow="1440.00" occupancy="10.75" speed="18.63" length="5.00" nVehEntered="6"/>
    <interval begin="45.00" end="60.00" id="ild_in:nt4,nt3" nVehContrib="1" flow="240.00" occupancy="2.20" speed="15.14" length="5.00" nVehEntered="1"/>
    <interval begin="45.00" end="60.00" id="ild_in:nt4,nt5" nVehContrib="6" flow="1440.00" occupancy="16.07" speed="12.88" length="5.00" nVehEntered="6"/>
    <interval begin="45.00" end="60.00" id="ild_in:nt3,nt2" nVehContrib="1" flow="240.00" occupancy="2.54" speed="13.14" length="5.00" nVehEntered="1"/>
    <interval begin="45.00" end="60.00" id="ild_in:nt6,np12" nVehContrib="3" flow="720.00" occupancy="5.41" speed="18.52" length="5.00" nVehEntered="3"/>
    <interval begin="45.00" end="60.00" id="ild_in:nt6,np13" nVehContrib="3" flow="720.00" occupancy="8.04" speed="12.67" length="5.00" nVehEntered="3"/>
    <interval begin="45.00" end="60.00" id="ild_in:nt2,np4" nVehContrib="0" flow="0.00" occupancy="0.00" speed="-1.00" length="-1.00" nVehEntered="0"/>
    <interval begin="45.00" end="60.00" id="ild_in:nt2,np5" nVehContrib="1" flow="240.00" occupancy="1.71" speed="19.49" length="5.00" nVehEntered="1"/>
    <interval begin="45.00" end="60.00" id="ild_in:nt5,np11" nVehContrib="2" flow="480.00" occupancy="3.61" speed="18.49" length="5.00" nVehEntered="2"/>
    <interval begin="45.00" end="60.00" id="ild_in:nt3,np6" nVehContrib="1" flow="240.00" occupancy="1.87" speed="17.81" length="5.00" nVehEntered="1"/>
    <interval begin="60.00" end="75.00" id="ild_in:nt1,nt2" nVehContrib="0" flow="0.00" occupancy="0.00" speed="-1.00" length="-1.00" nVehEntered="0"/>
    <interval begin="60.00" end="75.00" id="ild_in:nt1,npc" nVehContrib="3" flow="720.00" occupancy="6.22" speed="16.09" length="5.00" nVehEntered="3"/>
    <interval begin="60.00" end="75.00" id="ild_in:nt1,nt6" nVehContrib="0" flow="0.00" occupancy="0.00" speed="-1.00" length="-1.00" nVehEntered="0"/>
    <interval begin="60.00" end="75.00" id="ild_in:npc,nt3" nVehContrib="1" flow="240.00" occupancy="1.72" speed="19.41" length="5.00" nVehEntered="1"/>
    <interval begin="60.00" end="75.00" id="ild_in:npc,nt5" nVehContrib="0" flow="0.00" occupancy="0.00" speed="-1.00" length="-1.00" nVehEntered="0"/>
    <interval begin="60.00" end="75.00" id="ild_in:nt5,nt6" nVehContrib="6" flow="1440.00" occupancy="10.78" speed="18.58" length="5.00" nVehEntered="6"/>
    <interval begin="60.00" end="75.00" id="ild_in:nt4,nt3" nVehContrib="0" flow="0.00" occupancy="0.00" speed="-1.00" length="-1.00" nVehEntered="0"/>
    <interval begin="60.00" end="75.00" id="ild_in:nt4,nt5" nVehContrib="3" flow="720.00" occupancy="11.58" speed="10.36" length="5.00" nVehEntered="3"/>
    <interval begin="60.00" end="75.00" id="ild_in:nt3,nt2" nVehContrib="1" flow="240.00" occupancy="1.75" speed="19.03" length="5.00" nVehEntered="1"/>
    <interval begin="60.00" end="75.00" id="ild_in:nt6,np12" nVehContrib="6" flow="1440.00" occupancy="13.14" speed="15.63" length="5.00" nVehEntered="6"/>
    <interval begin="60.00" end="75.00" id="ild_in:nt6,np13" nVehContrib="0" flow="0.00" occupancy="0.00" speed="-1.00" length="-1.00" nVehEntered="0"/>
    <interval begin="60.00" end="75.00" id="ild_in:nt2,np4" nVehContrib="4" flow="960.00" occupancy="9.04" speed="15.05" length="5.00" nVehEntered="4"/>
    <interval begin="60.00" end="75.00" id="ild_in:nt2,np5" nVehContrib="0" flow="0.00" occupancy="0.00" speed="-1.00" length="-1.00" nVehEntered="0"/>
    <interval begin="60.00" end="75.00" id="ild_in:nt5,np11" nVehContrib="2" flow="480.00" occupancy="3.53" speed="18.89" length="5.00" nVehEntered="2"/>
    <interval begin="60.00" end="75.00" id="ild_in:nt3,np6" nVehContrib="0" flow="0.00" occupancy="0.00" speed="-1.00" length="-1.00" nVehEntered="0"/>
    <interval begin="75.00" end="90.00" id="ild_in:nt1,nt2" nVehContrib="0" flow="0.00" occupancy="0.00" speed="-1.00" length="-1.00" nVehEntered="0"/>
    <interval begin="75.00" end="90.00" id="ild_in:nt1,npc" nVehContrib="3" flow="720.00" occupancy="6.81" speed="14.70" length="5.00" nVehEntered="3"/>
    <interval begin="75.00" end="90.00" id="ild_in:nt1,nt6" nVehContrib="0" flow="0.00" occupancy="0.00" speed="-1.00" length="-1.00" nVehEntered="0"/>
    <interval begin="75.00" end="90.00" id="ild_in:npc,nt3" nVehContrib="3" flow="720.00" occupancy="5.40" speed="18.52" length="5.00" nVehEntered="3"/>
    <interval begin="75.00" end="90.00" id="ild_in:npc,nt5" nVehContrib="2" flow="480.00" occupancy="3.51" speed="19.01" length="5.00" nVehEntered="2"/>
    <interval begin="75.00" end="90.00" id="ild_in:nt5,nt6" nVehContrib="7" flow="1680.00" occupancy="13.14" speed="17.96" length="5.00" nVehEntered="7"/>
    <interval begin="75.00" end="90.00" id="ild_in:nt4,nt3" nVehContrib="1" flow="240.00" occupancy="2.98" speed="11.20" length="5.00" nVehEntered="1"/>
    <interval begin="75.00" end="90.00" id="ild_in:nt4,nt5" nVehContrib="2" flow="480.00" occupancy="17.58" speed="10.21" length="5.00" nVehEntered="3"/>
    <interval begin="75.00" end="90.00" id="ild_in:nt3,nt2" nVehContrib="0" flow="0.00" occupancy="0.00" speed="-1.00" length="-1.00" nVehEntered="0"/>
    <interval begin="75.00" end="90.00" id="ild_in:nt6,np12" nVehContrib="9" flow="2160.00" occupancy="16.39" speed="18.35" length="5.00" nVehEntered="9"/>
    <interval begin="75.00" end="90.00" id="ild_in:nt6,np13" nVehContrib="0" flow="0.00" occupancy="0.00" speed="-1.00" length="-1.00" nVehEntered="0"/>
    <interval begin="75.00" end="90.00" id="ild_in:nt2,np4" nVehContrib="3" flow="720.00" occupancy="8.12" speed="12.64" length="5.00" nVehEntered="3"/>
    <interval begin="75.00" end="90.00" id="ild_in:nt2,np5" nVehContrib="2" flow="480.00" occupancy="4.41" speed="15.89" length="5.00" nVehEntered="2"/>
    <interval begin="75.00" end="90.00" id="ild_in:nt5,np11" nVehContrib="1" flow="240.00" occupancy="1.73" speed="19.29" length="5.00" nVehEntered="1"/>
    <interval begin="75.00" end="90.00" id="ild_in:nt3,np6" nVehContrib="2" flow="480.00" occupancy="5.16" speed="13.27" length="5.00" nVehEntered="2"/>
    <interval begin="90.00" end="105.00" id="ild_in:nt1,nt2" nVehContrib="1" flow="240.00" occupancy="3.35" speed="9.94" length="5.00" nVehEntered="1"/>
    <interval begin="90.00" end="105.00" id="ild_in:nt1,npc" nVehContrib="1" flow="240.00" occupancy="1.74" speed="19.13" length="5.00" nVehEntered="1"/>
    <interval begin="90.00" end="105.00" id="ild_in:nt1,nt6" nVehContrib="0" flow="0.00" occupancy="0.00" speed="-1.00" length="-1.00" nVehEntered="0"/>
    <interval begin="90.00" end="105.00" id="ild_in:npc,nt3" nVehContrib="1" flow="240.00" occupancy="1.82" speed="18.31" length="5.00" nVehEntered="1"/>
    <interval begin="90.00" end="105.00" id="ild_in:npc,nt5" nVehContrib="0" flow="0.00" occupancy="0.00" speed="-1.00" length="-1.00" nVehEntered="0"/>
    <interval begin="90.00" end="105.00" id="ild_in:nt5,nt6" nVehContrib="3" flow="720.00" occupancy="5.53" speed="18.10" length="5.00" nVehEntered="3"/>
    <interval begin="90.00" end="105.00" id="ild_in:nt4,nt3" nVehContrib="3" flow="720.00" occupancy="6.17" speed="16.54" length="5.00" nVehEntered="3"/>
    <interval begin="90.00" end="105.00" id="ild_in:nt4,nt5" nVehContrib="3" flow="720.00" occupancy="16.39" speed="6.23" length="5.00" nVehEntered="2"/>
    <interval begin="90.00" end="105.00" id="ild_in:nt3,nt2" nVehContrib="2" flow="480.00" occupancy="3.60" speed="18.52" length="5.00" nVehEntered="2"/>
    <interval begin="90.00" end="105.00" id="ild_in:nt6,np12" nVehContrib="1" flow="240.00" occupancy="1.86" speed="17.92" length="5.00" nVehEntered="1"/>
    <interval begin="90.00" end="105.00" id="ild_in:nt6,np13" nVehContrib="5" flow="1200.00" occupancy="11.74" speed="14.86" length="5.00" nVehEntered="6"/>
    <interval begin="90.00" end="105.00" id="ild_in:nt2,np4" nVehContrib="1" flow="240.00" occupancy="1.74" speed="19.13" length="5.00" nVehEntered="1"/>
    <interval begin="90.00" end="105.00" id="ild_in:nt2,np5" nVehContrib="0" flow="0.00" occupancy="0.00" speed="-1.00" length="-1.00" nVehEntered="0"/>
    <interval begin="90.00" end="105.00" id="ild_in:nt5,np11" nVehContrib="2" flow="480.00" occupancy="3.49" speed="19.12" length="5.00" nVehEntered="2"/>
    <interval begin="90.00" end="105.00" id="ild_in:nt3,np6" nVehContrib="0" flow="0.00" occupancy="0.00" speed="-1.00" length="-1.00" nVehEntered="0"/>
    <interval begin="105.00" end="120.00" id="ild_in:nt1,nt2" nVehContrib="2" flow="480.00" occupancy="5.91" speed="13.43" length="5.00" nVehEntered="2"/>
    <interval begin="105.00" end="120.00" id="ild_in:nt1,npc" nVehContrib="1" flow="240.00" occupancy="2.52" speed="13.23" length="5.00" nVehEntered="1"/>
    <interval begin="105.00" end="120.00" id="ild_in:nt1,nt6" nVehContrib="1" flow="240.00" occupancy="2.31" speed="14.45" length="5.00" nVehEntered="1"/>
    <interval begin="105.00" end="120.00" id="ild_in:npc,nt3" nVehContrib="0" flow="0.00" occupancy="0.00" speed="-1.00" length="-1.00" nVehEntered="0"/>
    <interval begin="105.00" end="120.00" id="ild_in:npc,nt5" nVehContrib="1" flow="240.00" occupancy="1.71" speed="19.55" length="5.00" nVehEntered="1"/>
    <interval begin="105.00" end="120.00" id="ild_in:nt5,nt6" nVehContrib="3" flow="720.00" occupancy="7.25" speed="13.91" length="5.00" nVehEntered="3"/>
    <interval begin="105.00" end="120.00" id="ild_in:nt4,nt3" nVehContrib="2" flow="480.00" occupancy="4.32" speed="15.72" length="5.00" nVehEntered="2"/>
    <interval begin="105.00" end="120.00" id="ild_in:nt4,nt5" nVehContrib="2" flow="480.00" occupancy="4.93" speed="13.56" length="5.00" nVehEntered="2"/>
    <interval begin="105.00" end="120.00" id="ild_in:nt3,nt2" nVehContrib="1" flow="240.00" occupancy="1.73" speed="19.26" length="5.00" nVehEntered="1"/>
    <interval begin="105.00" end="120.00" id="ild_in:nt6,np12" nVehContrib="3" flow="720.00" occupancy="7.68" speed="13.44" length="5.00" nVehEntered="3"/>
    <interval begin="105.00" end="120.00" id="ild_in:nt6,np13" nVehContrib="4" flow="960.00" occupancy="6.95" speed="18.29" length="5.00" nVehEntered="3"/>
    <interval begin="105.00" end="120.00" id="ild_in:nt2,np4" nVehContrib="9" flow="2160.00" occupancy="19.51" speed="15.76" length="5.00" nVehEntered="9"/>
    <interval begin="105.00" end="120.00" id="ild_in:nt2,np5" nVehContrib="0" flow="0.00" occupancy="0.00" speed="-1.00" length="-1.00" nVehEntered="0"/>
    <interval begin="105.00" end="120.00" id="ild_in:nt5,np11" nVehContrib="3" flow="720.00" occupancy="7.48" speed="13.50" length="5.00" nVehEntered="3"/>
    <interval begin="105.00" end="120.00" id="ild_in:nt3,np6" nVehContrib="3" flow="720.00" occupancy="7.04" speed="14.38" length="5.00" nVehEntered="3"/>
    <interval begin="120.00" end="135.00" id="ild_in:nt1,nt2" nVehContrib="0" flow="0.00" occupancy="0.00" speed="-1.00" length="-1.00" nVehEntered="0"/>
    <interval begin="120.00" end="135.00" id="ild_in:nt1,npc" nVehContrib="3" flow="720.00" occupancy="7.02" speed="14.75" length="5.00" nVehEntered="3"/>
    <interval begin="120.00" end="135.00" id="ild_in:nt1,nt6" nVehContrib="1" flow="240.00" occupancy="4.47" speed="7.46" length="5.00" nVehEntered="1"/>
    <interval begin="120.00" end="135.00" id="ild_in:npc,nt3" nVehContrib="1" flow="240.00" occupancy="1.70" speed="19.66" length="5.00" nVehEntered="1"/>
    <interval begin="120.00" end="135.00" id="ild_in:npc,nt5" nVehContrib="1" flow="240.00" occupancy="1.88" speed="17.74" length="5.00" nVehEntered="1"/>
    <interval begin="120.00" end="135.00" id="ild_in:nt5,nt6" nVehContrib="8" flow="1920.00" occupancy="14.25" speed="18.74" length="5.00" nVehEntered="8"/>
    <interval begin="120.00" end="135.00" id="ild_in:nt4,nt3" nVehContrib="0" flow="0.00" occupancy="0.00" speed="-1.00" length="-1.00" nVehEntered="0"/>
    <interval begin="120.00" end="135.00" id="ild_in:nt4,nt5" nVehContrib="4" flow="960.00" occupancy="24.65" speed="8.50" length="5.00" nVehEntered="4"/>
    <interval begin="120.00" end="135.00" id="ild_in:nt3,nt2" nVehContrib="1" flow="240.00" occupancy="2.81" speed="11.88" length="5.00" nVehEntered="1"/>
    <interval begin="120.00" end="135.00" id="ild_in:nt6,np12" nVehContrib="9" flow="2160.00" occupancy="16.59" speed="18.13" length="5.00" nVehEntered="9"/>
    <interval begin="120.00" end="135.00" id="ild_in:nt6,np13" nVehContrib="0" flow="0.00" occupancy="0.00" speed="-1.00" length="-1.00" nVehEntered="0"/>
    <interval begin="120.00" end="135.00" id="ild_in:nt2,np4" nVehContrib="7" flow="1680.00" occupancy="12.47" speed="18.73" length="5.00" nVehEntered="7"/>
    <interval begin="120.00" end="135.00" id="ild_in:nt2,np5" nVehContrib="0" flow="0.00" occupancy="0.00" speed="-1.00" length="-1.00" nVehEntered="0"/>
    <interval begin="120.00" end="135.00" id="ild_in:nt5,np11" nVehContrib="1" flow="240.00" occupancy="1.73" speed="19.25" length="5.00" nVehEntered="1"/>
    <interval begin="120.00" end="135.00" id="ild_in:nt3,np6" nVehContrib="2" flow="480.00" occupancy="4.47" speed="15.05" length="5.00" nVehEntered="2"/>
    <interval begin="135.00" end="150.00" id="ild_in:nt1,nt2" nVehContrib="0" flow="0.00" occupancy="6.67" speed="-1.00" length="-1.00" nVehEntered="1"/>
    <interval begin="135.00" end="150.00" id="ild_in:nt1,npc" nVehContrib="2" flow="480.00" occupancy="3.68" speed="18.15" length="5.00" nVehEntered="2"/>
    <interval begin="135.00" end="150.00" id="ild_in:nt1,nt6" nVehContrib="6" flow="1440.00" occupancy="17.98" speed="14.71" length="5.00" nVehEntered="6"/>
    <interval begin="135.00" end="150.00" id="ild_in:npc,nt3" nVehContrib="1" flow="240.00" occupancy="3.17" speed="19.38" length="5.00" nVehEntered="2"/>
    <interval begin="135.00" end="150.00" id="ild_in:npc,nt5" nVehContrib="1" flow="240.00" occupancy="1.70" speed="19.63" length="5.00" nVehEntered="1"/>
    <interval begin="135.00" end="150.00" id="ild_in:nt5,nt6" nVehContrib="6" flow="1440.00" occupancy="11.86" speed="17.47" length="5.00" nVehEntered="6"/>
    <interval begin="135.00" end="150.00" id="ild_in:nt4,nt3" nVehContrib="1" flow="240.00" occupancy="2.48" speed="13.42" length="5.00" nVehEntered="1"/>
    <interval begin="135.00" end="150.00" id="ild_in:nt4,nt5" nVehContrib="3" flow="720.00" occupancy="29.13" speed="5.27" length="5.00" nVehEntered="4"/>
    <interval begin="135.00" end="150.00" id="ild_in:nt3,nt2" nVehContrib="1" flow="240.00" occupancy="2.98" speed="11.17" length="5.00" nVehEntered="1"/>
    <interval begin="135.00" end="150.00" id="ild_in:nt6,np12" nVehContrib="9" flow="2160.00" occupancy="16.37" speed="18.39" length="5.00" nVehEntered="9"/>
    <interval begin="135.00" end="150.00" id="ild_in:nt6,np13" nVehContrib="0" flow="0.00" occupancy="0.00" speed="-1.00" length="-1.00" nVehEntered="0"/>
    <interval begin="135.00" end="150.00" id="ild_in:nt2,np4" nVehContrib="0" flow="0.00" occupancy="0.00" speed="-1.00" length="-1.00" nVehEntered="0"/>
    <interval begin="135.00" end="150.00" id="ild_in:nt2,np5" nVehContrib="4" flow="960.00" occupancy="9.72" speed="14.26" length="5.00" nVehEntered="4"/>
    <interval begin="135.00" end="150.00" id="ild_in:nt5,np11" nVehContrib="0" flow="0.00" occupancy="0.00" speed="-1.00" length="-1.00" nVehEntered="0"/>
    <interval begin="135.00" end="150.00" id="ild_in:nt3,np6" nVehContrib="1" flow="240.00" occupancy="2.22" speed="15.05" length="5.00" nVehEntered="1"/>
    <interval begin="150.00" end="165.00" id="ild_in:nt1,nt2" nVehContrib="2" flow="480.00" occupancy="7.75" speed="9.07" length="5.00" nVehEntered="1"/>
    <interval begin="150.00" end="165.00" id="ild_in:nt1,npc" nVehContrib="2" flow="480.00" occupancy="3.70" speed="18.18" length="5.00" nVehEntered="2"/>
    <interval begin="150.00" end="165.00" id="ild_in:nt1,nt6" nVehContrib="2" flow="480.00" occupancy="8.36" speed="9.47" length="5.00" nVehEntered="2"/>
    <interval begin="150.00" end="165.00" id="ild_in:npc,nt3" nVehContrib="2" flow="480.00" occupancy="2.09" speed="18.81" length="5.00" nVehEntered="1"/>
    <interval begin="150.00" end="165.00" id="ild_in:npc,nt5" nVehContrib="0" flow="0.00" occupancy="0.00" speed="-1.00" length="-1.00" nVehEntered="0"/>
    <interval begin="150.00" end="165.00" id="ild_in:nt5,nt6" nVehContrib="5" flow="1200.00" occupancy="9.92" speed="16.91" length="5.00" nVehEntered="5"/>
    <interval begin="150.00" end="165.00" id="ild_in:nt4,nt3" nVehContrib="1" flow="240.00" occupancy="2.46" speed="13.54" length="5.00" nVehEntered="1"/>
    <interval begin="150.00" end="165.00" id="ild_in:nt4,nt5" nVehContrib="5" flow="1200.00" occupancy="32.92" speed="4.97" length="5.00" nVehEntered="4"/>
    <interval begin="150.00" end="165.00" id="ild_in:nt3,nt2" nVehContrib="2" flow="480.00" occupancy="4.77" speed="14.66" length="5.00" nVehEntered="2"/>
    <interval begin="150.00" end="165.00" id="ild_in:nt6,np12" nVehContrib="4" flow="960.00" occupancy="7.17" speed="18.64" length="5.00" nVehEntered="4"/>
    <interval begin="150.00" end="165.00" id="ild_in:nt6,np13" nVehContrib="0" flow="0.00" occupancy="0.00" speed="-1.00" length="-1.00" nVehEntered="0"/>
    <interval begin="150.00" end="165.00" id="ild_in:nt2,np4" nVehContrib="4" flow="960.00" occupancy="9.76" speed="14.00" length="5.00" nVehEntered="4"/>
    <interval begin="150.00" end="165.00" id="ild_in:nt2,np5" nVehContrib="0" flow="0.00" occupancy="0.00" speed="-1.00" length="-1.00" nVehEntered="0"/>
    <interval begin="150.00" end="165.00" id="ild_in:nt5,np11" nVehContrib="1" flow="240.00" occupancy="2.82" speed="11.83" length="5.00" nVehEntered="1"/>
    <interval begin="150.00" end="165.00" id="ild_in:nt3,np6" nVehContrib="1" flow="240.00" occupancy="2.08" speed="16.00" length="5.00" nVehEntered="1"/>
    <interval begin="165.00" end="180.00" id="ild_in:nt1,nt2" nVehContrib="2" flow="480.00" occupancy="5.49" speed="14.34" length="5.00" nVehEntered="2"/>
    <interval begin="165.00" end="180.00" id="ild_in:nt1,npc" nVehContrib="2" flow="480.00" occupancy="4.31" speed="15.81" length="5.00" nVehEntered="2"/>
    <interval begin="165.00" end="180.00" id="ild_in:nt1,nt6" nVehContrib="0" flow="0.00" occupancy="0.00" speed="-1.00" length="-1.00" nVehEntered="0"/>
    <interval begin="165.00" end="180.00" id="ild_in:npc,nt3" nVehContrib="2" flow="480.00" occupancy="3.58" speed="18.63" length="5.00" nVehEntered="2"/>
    <interval begin="165.00" end="180.00" id="ild_in:npc,nt5" nVehContrib="1" flow="240.00" occupancy="1.83" speed="18.23" length="5.00" nVehEntered="1"/>
    <interval begin="165.00" end="180.00" id="ild_in:nt5,nt6" nVehContrib="7" flow="1680.00" occupancy="14.09" speed="16.80" length="5.00" nVehEntered="7"/>
    <interval begin="165.00" end="180.00" id="ild_in:nt4,nt3" nVehContrib="3" flow="720.00" occupancy="7.46" speed="14.02" length="5.00" nVehEntered="3"/>
    <interval begin="165.00" end="180.00" id="ild_in:nt4,nt5" nVehContrib="4" flow="960.00" occupancy="20.01" speed="7.89" length="5.00" nVehEntered="4"/>
    <interval begin="165.00" end="180.00" id="ild_in:nt3,nt2" nVehContrib="1" flow="240.00" occupancy="1.76" speed="18.90" length="5.00" nVehEntered="1"/>
    <interval begin="165.00" end="180.00" id="ild_in:nt6,np12" nVehContrib="2" flow="480.00" occupancy="3.64" speed="18.32" length="5.00" nVehEntered="2"/>
    <interval begin="165.00" end="180.00" id="ild_in:nt6,np13" nVehContrib="3" flow="720.00" occupancy="7.31" speed="13.77" length="5.00" nVehEntered="3"/>
    <interval begin="165.00" end="180.00" id="ild_in:nt2,np4" nVehContrib="0" flow="0.00" occupancy="0.00" speed="-1.00" length="-1.00" nVehEntered="0"/>
    <interval begin="165.00" end="180.00" id="ild_in:nt2,np5" nVehContrib="3" flow="720.00" occupancy="7.35" speed="13.89" length="5.00" nVehEntered="3"/>
    <interval begin="165.00" end="180.00" id="ild_in:nt5,np11" nVehContrib="0" flow="0.00" occupancy="0.00" speed="-1.00" length="-1.00" nVehEntered="0"/>
    <interval begin="165.00" end="180.00" id="ild_in:nt3,np6" nVehContrib="0" flow="0.00" occupancy="0.00" speed="-1.00" length="-1.00" nVehEntered="0"/>
    <interval begin="180.00" end="195.00" id="ild_in:nt1,nt2" nVehContrib="2" flow="480.00" occupancy="4.66" speed="14.35" length="5.00" nVehEntered="2"/>
    <interval begin="180.00" end="195.00" id="ild_in:nt1,npc" nVehContrib="1" flow="240.00" occupancy="2.39" speed="13.97" length="5.00" nVehEntered="1"/>
    <interval begin="180.00" end="195.00" id="ild_in:nt1,nt6" nVehContrib="3" flow="720.00" occupancy="14.83" speed="7.18" length="5.00" nVehEntered="3"/>
    <interval begin="180.00" end="195.00" id="ild_in:npc,nt3" nVehContrib="1" flow="240.00" occupancy="1.86" speed="17.91" length="5.00" nVehEntered="1"/>
    <interval begin="180.00" end="195.00" id="ild_in:npc,nt5" nVehContrib="0" flow="0.00" occupancy="0.00" speed="-1.00" length="-1.00" nVehEntered="0"/>
    <interval begin="180.00" end="195.00" id="ild_in:nt5,nt6" nVehContrib="5" flow="1200.00" occupancy="9.77" speed="17.57" length="5.00" nVehEntered="5"/>
    <interval begin="180.00" end="195.00" id="ild_in:nt4,nt3" nVehContrib="1" flow="240.00" occupancy="2.40" speed="13.88" length="5.00" nVehEntered="1"/>