<?xml version="1.0" encoding="UTF-8"?>

<!-- generated on Thu May 17 15:04:44 2018 by SUMO Version 0.32.0
<?xml version="1.0" encoding="UTF-8"?>

<configuration xmlns:xsi="http://www.w3.org/2001/XMLSchema-instance" xsi:noNamespaceSchemaLocation="http://sumo.dlr.de/xsd/sumoConfiguration.xsd">

    <input>
        <net-file value="./small_grid/data/exp.net.xml"/>
        <route-files value="./small_grid/data/exp_0.rou.xml"/>
        <additional-files value="./small_grid/data/exp.add.xml"/>
    </input>

    <output>
        <tripinfo-output value="./output_result/trip.xml"/>
    </output>

    <time>
        <begin value="0"/>
        <end value="7200"/>
    </time>

    <processing>
        <time-to-teleport value="-1"/>
    </processing>

    <report>
        <no-warnings value="true"/>
        <duration-log.disable value="true"/>
        <no-step-log value="true"/>
    </report>

    <traci_server>
        <remote-port value="8000"/>
    </traci_server>

    <random_number>
        <seed value="42"/>
    </random_number>

</configuration>
-->

<detector xmlns:xsi="http://www.w3.org/2001/XMLSchema-instance" xsi:noNamespaceSchemaLocation="http://sumo.dlr.de/xsd/det_e1_file.xsd">
    <interval begin="0.00" end="15.00" id="ild_out:np1,nt1" nVehContrib="2" flow="480.00" occupancy="7.04" speed="9.47" length="5.00" nVehEntered="2"/>
    <interval begin="0.00" end="15.00" id="ild_out:np2,nt1" nVehContrib="1" flow="240.00" occupancy="2.92" speed="11.40" length="5.00" nVehEntered="1"/>
    <interval begin="0.00" end="15.00" id="ild_out:np3,nt1" nVehContrib="2" flow="480.00" occupancy="5.41" speed="12.34" length="5.00" nVehEntered="2"/>
    <interval begin="0.00" end="15.00" id="ild_out:np8,nt4" nVehContrib="2" flow="480.00" occupancy="5.39" speed="12.37" length="5.00" nVehEntered="2"/>
    <interval begin="0.00" end="15.00" id="ild_out:np9,nt4" nVehContrib="2" flow="480.00" occupancy="6.20" speed="10.76" length="5.00" nVehEntered="2"/>
    <interval begin="0.00" end="15.00" id="ild_out:nt1,nt2" nVehContrib="1" flow="240.00" occupancy="1.86" speed="17.96" length="5.00" nVehEntered="1"/>
    <interval begin="0.00" end="15.00" id="ild_out:nt1,npc" nVehContrib="0" flow="0.00" occupancy="0.25" speed="-1.00" length="-1.00" nVehEntered="1"/>
    <interval begin="0.00" end="15.00" id="ild_out:nt1,nt6" nVehContrib="1" flow="240.00" occupancy="1.83" speed="18.18" length="5.00" nVehEntered="1"/>
    <interval begin="0.00" end="15.00" id="ild_out:npc,nt3" nVehContrib="0" flow="0.00" occupancy="0.00" speed="-1.00" length="-1.00" nVehEntered="0"/>
    <interval begin="0.00" end="15.00" id="ild_out:npc,nt5" nVehContrib="0" flow="0.00" occupancy="0.00" speed="-1.00" length="-1.00" nVehEntered="0"/>
    <interval begin="0.00" end="15.00" id="ild_out:nt5,nt6" nVehContrib="0" flow="0.00" occupancy="0.00" speed="-1.00" length="-1.00" nVehEntered="0"/>
    <interval begin="0.00" end="15.00" id="ild_out:nt4,nt3" nVehContrib="0" flow="0.00" occupancy="0.00" speed="-1.00" length="-1.00" nVehEntered="0"/>
    <interval begin="0.00" end="15.00" id="ild_out:nt4,nt5" nVehContrib="2" flow="480.00" occupancy="5.84" speed="11.94" length="5.00" nVehEntered="2"/>
    <interval begin="0.00" end="15.00" id="ild_out:nt3,nt2" nVehContrib="0" flow="0.00" occupancy="0.00" speed="-1.00" length="-1.00" nVehEntered="0"/>
    <interval begin="15.00" end="30.00" id="ild_out:np1,nt1" nVehContrib="1" flow="240.00" occupancy="2.86" speed="11.65" length="5.00" nVehEntered="1"/>
    <interval begin="15.00" end="30.00" id="ild_out:np2,nt1" nVehContrib="1" flow="240.00" occupancy="2.67" speed="12.50" length="5.00" nVehEntered="1"/>
    <interval begin="15.00" end="30.00" id="ild_out:np3,nt1" nVehContrib="1" flow="240.00" occupancy="2.41" speed="13.84" length="5.00" nVehEntered="1"/>
    <interval begin="15.00" end="30.00" id="ild_out:np8,nt4" nVehContrib="2" flow="480.00" occupancy="5.49" speed="12.17" length="5.00" nVehEntered="2"/>
    <interval begin="15.00" end="30.00" id="ild_out:np9,nt4" nVehContrib="2" flow="480.00" occupancy="5.45" speed="12.42" length="5.00" nVehEntered="2"/>
    <interval begin="15.00" end="30.00" id="ild_out:nt1,nt2" nVehContrib="3" flow="720.00" occupancy="5.35" speed="18.70" length="5.00" nVehEntered="3"/>
    <interval begin="15.00" end="30.00" id="ild_out:nt1,npc" nVehContrib="1" flow="240.00" occupancy="1.54" speed="18.59" length="5.00" nVehEntered="0"/>
    <interval begin="15.00" end="30.00" id="ild_out:nt1,nt6" nVehContrib="4" flow="960.00" occupancy="14.41" speed="15.13" length="5.00" nVehEntered="5"/>
    <interval begin="15.00" end="30.00" id="ild_out:npc,nt3" nVehContrib="1" flow="240.00" occupancy="1.84" speed="18.11" length="5.00" nVehEntered="1"/>
    <interval begin="15.00" end="30.00" id="ild_out:npc,nt5" nVehContrib="0" flow="0.00" occupancy="0.00" speed="-1.00" length="-1.00" nVehEntered="0"/>
    <interval begin="15.00" end="30.00" id="ild_out:nt5,nt6" nVehContrib="4" flow="960.00" occupancy="7.57" speed="17.64" length="5.00" nVehEntered="4"/>
    <interval begin="15.00" end="30.00" id="ild_out:nt4,nt3" nVehContrib="0" flow="0.00" occupancy="0.00" speed="-1.00" length="-1.00" nVehEntered="0"/>
    <interval begin="15.00" end="30.00" id="ild_out:nt4,nt5" nVehContrib="7" flow="1680.00" occupancy="19.22" speed="13.33" length="5.00" nVehEntered="7"/>
    <interval begin="15.00" end="30.00" id="ild_out:nt3,nt2" nVehContrib="0" flow="0.00" occupancy="0.00" speed="-1.00" length="-1.00" nVehEntered="0"/>
    <interval begin="30.00" end="45.00" id="ild_out:np1,nt1" nVehContrib="2" flow="480.00" occupancy="5.85" speed="11.49" length="5.00" nVehEntered="2"/>
    <interval begin="30.00" end="45.00" id="ild_out:np2,nt1" nVehContrib="1" flow="240.00" occupancy="3.08" speed="10.83" length="5.00" nVehEntered="1"/>
    <interval begin="30.00" end="45.00" id="ild_out:np3,nt1" nVehContrib="2" flow="480.00" occupancy="5.52" speed="12.16" length="5.00" nVehEntered="2"/>
    <interval begin="30.00" end="45.00" id="ild_out:np8,nt4" nVehContrib="2" flow="480.00" occupancy="5.60" speed="11.97" length="5.00" nVehEntered="2"/>
    <interval begin="30.00" end="45.00" id="ild_out:np9,nt4" nVehContrib="2" flow="480.00" occupancy="5.43" speed="12.27" length="5.00" nVehEntered="2"/>
    <interval begin="30.00" end="45.00" id="ild_out:nt1,nt2" nVehContrib="6" flow="1440.00" occupancy="10.65" speed="18.79" length="5.00" nVehEntered="6"/>
    <interval begin="30.00" end="45.00" id="ild_out:nt1,npc" nVehContrib="2" flow="480.00" occupancy="4.12" speed="19.20" length="5.00" nVehEntered="3"/>
    <interval begin="30.00" end="45.00" id="ild_out:nt1,nt6" nVehContrib="4" flow="960.00" occupancy="10.63" speed="14.91" length="5.00" nVehEntered="3"/>
    <interval begin="30.00" end="45.00" id="ild_out:npc,nt3" nVehContrib="0" flow="0.00" occupancy="0.00" speed="-1.00" length="-1.00" nVehEntered="0"/>
    <interval begin="30.00" end="45.00" id="ild_out:npc,nt5" nVehContrib="0" flow="0.00" occupancy="0.00" speed="-1.00" length="-1.00" nVehEntered="0"/>
    <interval begin="30.00" end="45.00" id="ild_out:nt5,nt6" nVehContrib="0" flow="0.00" occupancy="0.00" speed="-1.00" length="-1.00" nVehEntered="0"/>
    <interval begin="30.00" end="45.00" id="ild_out:nt4,nt3" nVehContrib="1" flow="240.00" occupancy="1.68" speed="19.81" length="5.00" nVehEntered="1"/>
    <interval begin="30.00" end="45.00" id="ild_out:nt4,nt5" nVehContrib="0" flow="0.00" occupancy="93.20" speed="-1.00" length="-1.00" nVehEntered="1"/>
    <interval begin="30.00" end="45.00" id="ild_out:nt3,nt2" nVehContrib="0" flow="0.00" occupancy="0.00" speed="-1.00" length="-1.00" nVehEntered="0"/>
    <interval begin="45.00" end="60.00" id="ild_out:np1,nt1" nVehContrib="1" flow="240.00" occupancy="3.02" speed="11.04" length="5.00" nVehEntered="1"/>
    <interval begin="45.00" end="60.00" id="ild_out:np2,nt1" nVehContrib="1" flow="240.00" occupancy="2.56" speed="13.03" length="5.00" nVehEntered="1"/>
    <interval begin="45.00" end="60.00" id="ild_out:np3,nt1" nVehContrib="2" flow="480.00" occupancy="6.19" speed="10.82" length="5.00" nVehEntered="2"/>
    <interval begin="45.00" end="60.00" id="ild_out:np8,nt4" nVehContrib="2" flow="480.00" occupancy="5.27" speed="12.69" length="5.00" nVehEntered="2"/>
    <interval begin="45.00" end="60.00" id="ild_out:np9,nt4" nVehContrib="2" flow="480.00" occupancy="6.02" speed="11.11" length="5.00" nVehEntered="2"/>
    <interval begin="45.00" end="60.00" id="ild_out:nt1,nt2" nVehContrib="2" flow="480.00" occupancy="42.40" speed="8.72" length="5.00" nVehEntered="3"/>
    <interval begin="45.00" end="60.00" id="ild_out:nt1,npc" nVehContrib="1" flow="240.00" occupancy="1.17" speed="18.30" length="5.00" nVehEntered="0"/>
    <interval begin="45.00" end="60.00" id="ild_out:nt1,nt6" nVehContrib="3" flow="720.00" occupancy="5.98" speed="17.02" length="5.00" nVehEntered="3"/>
    <interval begin="45.00" end="60.00" id="ild_out:npc,nt3" nVehContrib="1" flow="240.00" occupancy="1.71" speed="19.49" length="5.00" nVehEntered="1"/>
    <interval begin="45.00" end="60.00" id="ild_out:npc,nt5" nVehContrib="2" flow="480.00" occupancy="3.62" speed="18.46" length="5.00" nVehEntered="2"/>
    <interval begin="45.00" end="60.00" id="ild_out:nt5,nt6" nVehContrib="3" flow="720.00" occupancy="5.29" speed="18.92" length="5.00" nVehEntered="3"/>
    <interval begin="45.00" end="60.00" id="ild_out:nt4,nt3" nVehContrib="3" flow="720.00" occupancy="5.32" speed="18.83" length="5.00" nVehEntered="3"/>
    <interval begin="45.00" end="60.00" id="ild_out:nt4,nt5" nVehContrib="4" flow="960.00" occupancy="56.22" speed="4.39" length="5.00" nVehEntered="3"/>
    <interval begin="45.00" end="60.00" id="ild_out:nt3,nt2" nVehContrib="0" flow="0.00" occupancy="0.00" speed="-1.00" length="-1.00" nVehEntered="0"/>
    <interval begin="60.00" end="75.00" id="ild_out:np1,nt1" nVehContrib="2" flow="480.00" occupancy="5.60" speed="12.02" length="5.00" nVehEntered="2"/>
    <interval begin="60.00" end="75.00" id="ild_out:np2,nt1" nVehContrib="1" flow="240.00" occupancy="3.18" speed="10.50" length="5.00" nVehEntered="1"/>
    <interval begin="60.00" end="75.00" id="ild_out:np3,nt1" nVehContrib="1" flow="240.00" occupancy="3.08" speed="10.81" length="5.00" nVehEntered="1"/>
    <interval begin="60.00" end="75.00" id="ild_out:np8,nt4" nVehContrib="2" flow="480.00" occupancy="5.65" speed="11.79" length="5.00" nVehEntered="2"/>
    <interval begin="60.00" end="75.00" id="ild_out:np9,nt4" nVehContrib="2" flow="480.00" occupancy="6.05" speed="11.01" length="5.00" nVehEntered="2"/>
    <interval begin="60.00" end="75.00" id="ild_out:nt1,nt2" nVehContrib="2" flow="480.00" occupancy="76.61" speed="2.78" length="5.00" nVehEntered="1"/>
    <interval begin="60.00" end="75.00" id="ild_out:nt1,npc" nVehContrib="1" flow="240.00" occupancy="1.88" speed="17.73" length="5.00" nVehEntered="1"/>
    <interval begin="60.00" end="75.00" id="ild_out:nt1,nt6" nVehContrib="3" flow="720.00" occupancy="40.20" speed="9.81" length="5.00" nVehEntered="3"/>
    <interval begin="60.00" end="75.00" id="ild_out:npc,nt3" nVehContrib="0" flow="0.00" occupancy="0.00" speed="-1.00" length="-1.00" nVehEntered="0"/>
    <interval begin="60.00" end="75.00" id="ild_out:npc,nt5" nVehContrib="0" flow="0.00" occupancy="0.00" speed="-1.00" length="-1.00" nVehEntered="0"/>
    <interval begin="60.00" end="75.00" id="ild_out:nt5,nt6" nVehContrib="3" flow="720.00" occupancy="5.79" speed="17.35" length="5.00" nVehEntered="3"/>
    <interval begin="60.00" end="75.00" id="ild_out:nt4,nt3" nVehContrib="1" flow="240.00" occupancy="1.67" speed="19.95" length="5.00" nVehEntered="1"/>
    <interval begin="60.00" end="75.00" id="ild_out:nt4,nt5" nVehContrib="3" flow="720.00" occupancy="55.43" speed="7.42" length="5.00" nVehEntered="4"/>
    <interval begin="60.00" end="75.00" id="ild_out:nt3,nt2" nVehContrib="2" flow="480.00" occupancy="3.39" speed="19.64" length="5.00" nVehEntered="2"/>
    <interval begin="75.00" end="90.00" id="ild_out:np1,nt1" nVehContrib="1" flow="240.00" occupancy="2.46" speed="13.57" length="5.00" nVehEntered="1"/>
    <interval begin="75.00" end="90.00" id="ild_out:np2,nt1" nVehContrib="1" flow="240.00" occupancy="2.75" speed="12.13" length="5.00" nVehEntered="1"/>
    <interval begin="75.00" end="90.00" id="ild_out:np3,nt1" nVehContrib="2" flow="480.00" occupancy="5.04" speed="13.22" length="5.00" nVehEntered="2"/>
    <interval begin="75.00" end="90.00" id="ild_out:np8,nt4" nVehContrib="2" flow="480.00" occupancy="5.39" speed="12.41" length="5.00" nVehEntered="2"/>
    <interval begin="75.00" end="90.00" id="ild_out:np9,nt4" nVehContrib="2" flow="480.00" occupancy="8.09" speed="10.16" length="5.00" nVehEntered="3"/>
    <interval begin="75.00" end="90.00" id="ild_out:nt1,nt2" nVehContrib="8" flow="1920.00" occupancy="24.22" speed="12.32" length="5.00" nVehEntered="8"/>
    <interval begin="75.00" end="90.00" id="ild_out:nt1,npc" nVehContrib="2" flow="480.00" occupancy="3.60" speed="18.54" length="5.00" nVehEntered="2"/>
    <interval begin="75.00" end="90.00" id="ild_out:nt1,nt6" nVehContrib="5" flow="1200.00" occupancy="10.27" speed="17.09" length="5.00" nVehEntered="5"/>
    <interval begin="75.00" end="90.00" id="ild_out:npc,nt3" nVehContrib="1" flow="240.00" occupancy="1.75" speed="19.00" length="5.00" nVehEntered="1"/>
    <interval begin="75.00" end="90.00" id="ild_out:npc,nt5" nVehContrib="0" flow="0.00" occupancy="0.00" speed="-1.00" length="-1.00" nVehEntered="0"/>
    <interval begin="75.00" end="90.00" id="ild_out:nt5,nt6" nVehContrib="0" flow="0.00" occupancy="0.00" speed="-1.00" length="-1.00" nVehEntered="0"/>
    <interval begin="75.00" end="90.00" id="ild_out:nt4,nt3" nVehContrib="1" flow="240.00" occupancy="1.77" speed="18.79" length="5.00" nVehEntered="1"/>
    <interval begin="75.00" end="90.00" id="ild_out:nt4,nt5" nVehContrib="0" flow="0.00" occupancy="100.00" speed="-1.00" length="-1.00" nVehEntered="0"/>
    <interval begin="75.00" end="90.00" id="ild_out:nt3,nt2" nVehContrib="0" flow="0.00" occupancy="0.00" speed="-1.00" length="-1.00" nVehEntered="0"/>
    <interval begin="90.00" end="105.00" id="ild_out:np1,nt1" nVehContrib="2" flow="480.00" occupancy="6.29" speed="10.62" length="5.00" nVehEntered="2"/>
    <interval begin="90.00" end="105.00" id="ild_out:np2,nt1" nVehContrib="1" flow="240.00" occupancy="3.11" speed="10.73" length="5.00" nVehEntered="1"/>
    <interval begin="90.00" end="105.00" id="ild_out:np3,nt1" nVehContrib="1" flow="240.00" occupancy="2.47" speed="13.48" length="5.00" nVehEntered="1"/>
    <interval begin="90.00" end="105.00" id="ild_out:np8,nt4" nVehContrib="2" flow="480.00" occupancy="5.38" speed="12.39" length="5.00" nVehEntered="2"/>
    <interval begin="90.00" end="105.00" id="ild_out:np9,nt4" nVehContrib="3" flow="720.00" occupancy="7.44" speed="11.21" length="5.00" nVehEntered="2"/>
    <interval begin="90.00" end="105.00" id="ild_out:nt1,nt2" nVehContrib="0" flow="0.00" occupancy="92.27" speed="-1.00" length="-1.00" nVehEntered="1"/>
    <interval begin="90.00" end="105.00" id="ild_out:nt1,npc" nVehContrib="3" flow="720.00" occupancy="6.17" speed="19.27" length="5.00" nVehEntered="4"/>
    <interval begin="90.00" end="105.00" id="ild_out:nt1,nt6" nVehContrib="1" flow="240.00" occupancy="39.48" speed="8.96" length="5.00" nVehEntered="2"/>
    <interval begin="90.00" end="105.00" id="ild_out:npc,nt3" nVehContrib="1" flow="240.00" occupancy="1.67" speed="19.93" length="5.00" nVehEntered="1"/>
    <interval begin="90.00" end="105.00" id="ild_out:npc,nt5" nVehContrib="1" flow="240.00" occupancy="1.70" speed="19.59" length="5.00" nVehEntered="1"/>
    <interval begin="90.00" end="105.00" id="ild_out:nt5,nt6" nVehContrib="5" flow="1200.00" occupancy="8.89" speed="18.79" length="5.00" nVehEntered="5"/>
    <interval begin="90.00" end="105.00" id="ild_out:nt4,nt3" nVehContrib="0" flow="0.00" occupancy="0.00" speed="-1.00" length="-1.00" nVehEntered="0"/>
    <interval begin="90.00" end="105.00" id="ild_out:nt4,nt5" nVehContrib="6" flow="1440.00" occupancy="31.41" speed="4.97" length="5.00" nVehEntered="5"/>
    <interval begin="90.00" end="105.00" id="ild_out:nt3,nt2" nVehContrib="3" flow="720.00" occupancy="5.25" speed="19.05" length="5.00" nVehEntered="3"/>
    <interval begin="105.00" end="120.00" id="ild_out:np1,nt1" nVehContrib="1" flow="240.00" occupancy="3.24" speed="10.28" length="5.00" nVehEntered="1"/>
    <interval begin="105.00" end="120.00" id="ild_out:np2,nt1" nVehContrib="1" flow="240.00" occupancy="3.02" speed="11.04" length="5.00" nVehEntered="1"/>
    <interval begin="105.00" end="120.00" id="ild_out:np3,nt1" nVehContrib="2" flow="480.00" occupancy="5.71" speed="11.78" length="5.00" nVehEntered="2"/>
    <interval begin="105.00" end="120.00" id="ild_out:np8,nt4" nVehContrib="1" flow="240.00" occupancy="2.99" speed="11.14" length="5.00" nVehEntered="1"/>
    <interval begin="105.00" end="120.00" id="ild_out:np9,nt4" nVehContrib="2" flow="480.00" occupancy="6.27" speed="10.65" length="5.00" nVehEntered="2"/>
    <interval begin="105.00" end="120.00" id="ild_out:nt1,nt2" nVehContrib="5" flow="1200.00" occupancy="48.04" speed="8.01" length="5.00" nVehEntered="4"/>
    <interval begin="105.00" end="120.00" id="ild_out:nt1,npc" nVehContrib="3" flow="720.00" occupancy="4.35" speed="18.79" length="5.00" nVehEntered="2"/>
    <interval begin="105.00" end="120.00" id="ild_out:nt1,nt6" nVehContrib="4" flow="960.00" occupancy="47.58" speed="9.16" length="5.00" nVehEntered="3"/>
    <interval begin="105.00" end="120.00" id="ild_out:npc,nt3" nVehContrib="3" flow="720.00" occupancy="5.45" speed="18.39" length="5.00" nVehEntered="3"/>
    <interval begin="105.00" end="120.00" id="ild_out:npc,nt5" nVehContrib="1" flow="240.00" occupancy="1.77" speed="18.79" length="5.00" nVehEntered="1"/>
    <interval begin="105.00" end="120.00" id="ild_out:nt5,nt6" nVehContrib="2" flow="480.00" occupancy="3.44" speed="19.38" length="5.00" nVehEntered="2"/>
    <interval begin="105.00" end="120.00" id="ild_out:nt4,nt3" nVehContrib="0" flow="0.00" occupancy="0.00" speed="-1.00" length="-1.00" nVehEntered="0"/>
    <interval begin="105.00" end="120.00" id="ild_out:nt4,nt5" nVehContrib="1" flow="240.00" occupancy="84.83" speed="8.45" length="5.00" nVehEntered="2"/>
    <interval begin="105.00" end="120.00" id="ild_out:nt3,nt2" nVehContrib="0" flow="0.00" occupancy="0.00" speed="-1.00" length="-1.00" nVehEntered="0"/>
    <interval begin="120.00" end="135.00" id="ild_out:np1,nt1" nVehContrib="2" flow="480.00" occupancy="5.98" speed="11.31" length="5.00" nVehEntered="2"/>
    <interval begin="120.00" end="135.00" id="ild_out:np2,nt1" nVehContrib="1" flow="240.00" occupancy="2.82" speed="11.83" length="5.00" nVehEntered="1"/>
    <interval begin="120.00" end="135.00" id="ild_out:np3,nt1" nVehContrib="1" flow="240.00" occupancy="3.01" speed="11.09" length="5.00" nVehEntered="1"/>
    <interval begin="120.00" end="135.00" id="ild_out:np8,nt4" nVehContrib="2" flow="480.00" occupancy="6.24" speed="10.70" length="5.00" nVehEntered="2"/>
    <interval begin="120.00" end="135.00" id="ild_out:np9,nt4" nVehContrib="2" flow="480.00" occupancy="32.28" speed="4.33" length="5.00" nVehEntered="2"/>
    <interval begin="120.00" end="135.00" id="ild_out:nt1,nt2" nVehContrib="5" flow="1200.00" occupancy="42.08" speed="13.54" length="5.00" nVehEntered="6"/>
    <interval begin="120.00" end="135.00" id="ild_out:nt1,npc" nVehContrib="2" flow="480.00" occupancy="3.43" speed="19.45" length="5.00" nVehEntered="2"/>
    <interval begin="120.00" end="135.00" id="ild_out:nt1,nt6" nVehContrib="4" flow="960.00" occupancy="33.06" speed="14.77" length="5.00" nVehEntered="5"/>
    <interval begin="120.00" end="135.00" id="ild_out:npc,nt3" nVehContrib="2" flow="480.00" occupancy="3.47" speed="19.20" length="5.00" nVehEntered="2"/>
    <interval begin="120.00" end="135.00" id="ild_out:npc,nt5" nVehContrib="1" flow="240.00" occupancy="1.71" speed="19.48" length="5.00" nVehEntered="1"/>
    <interval begin="120.00" end="135.00" id="ild_out:nt5,nt6" nVehContrib="1" flow="240.00" occupancy="2.70" speed="19.94" length="5.00" nVehEntered="2"/>
    <interval begin="120.00" end="135.00" id="ild_out:nt4,nt3" nVehContrib="1" flow="240.00" occupancy="1.80" speed="18.48" length="5.00" nVehEntered="1"/>
    <interval begin="120.00" end="135.00" id="ild_out:nt4,nt5" nVehContrib="2" flow="480.00" occupancy="82.73" speed="1.22" length="5.00" nVehEntered="1"/>
    <interval begin="120.00" end="135.00" id="ild_out:nt3,nt2" nVehContrib="1" flow="240.00" occupancy="1.82" speed="18.27" length="5.00" nVehEntered="1"/>
    <interval begin="135.00" end="150.00" id="ild_out:np1,nt1" nVehContrib="1" flow="240.00" occupancy="2.65" speed="12.57" length="5.00" nVehEntered="1"/>
    <interval begin="135.00" end="150.00" id="ild_out:np2,nt1" nVehContrib="1" flow="240.00" occupancy="2.89" speed="11.52" length="5.00" nVehEntered="1"/>
    <interval begin="135.00" end="150.00" id="ild_out:np3,nt1" nVehContrib="2" flow="480.00" occupancy="6.04" speed="11.26" length="5.00" nVehEntered="2"/>
    <interval begin="135.00" end="150.00" id="ild_out:np8,nt4" nVehContrib="1" flow="240.00" occupancy="44.91" speed="10.10" length="5.00" nVehEntered="2"/>
    <interval begin="135.00" end="150.00" id="ild_out:np9,nt4" nVehContrib="2" flow="480.00" occupancy="6.11" speed="10.91" length="5.00" nVehEntered="2"/>
    <interval begin="135.00" end="150.00" id="ild_out:nt1,nt2" nVehContrib="0" flow="0.00" occupancy="100.00" speed="-1.00" length="-1.00" nVehEntered="0"/>
    <interval begin="135.00" end="150.00" id="ild_out:nt1,npc" nVehContrib="1" flow="240.00" occupancy="1.74" speed="19.18" length="5.00" nVehEntered="1"/>
    <interval begin="135.00" end="150.00" id="ild_out:nt1,nt6" nVehContrib="0" flow="0.00" occupancy="100.00" speed="-1.00" length="-1.00" nVehEntered="0"/>
    <interval begin="135.00" end="150.00" id="ild_out:npc,nt3" nVehContrib="1" flow="240.00" occupancy="1.85" speed="17.97" length="5.00" nVehEntered="1"/>
    <interval begin="135.00" end="150.00" id="ild_out:npc,nt5" nVehContrib="0" flow="0.00" occupancy="0.00" speed="-1.00" length="-1.00" nVehEntered="0"/>
    <interval begin="135.00" end="150.00" id="ild_out:nt5,nt6" nVehContrib="8" flow="1920.00" occupancy="17.17" speed="16.22" length="5.00" nVehEntered="7"/>
    <interval begin="135.00" end="150.00" id="ild_out:nt4,nt3" nVehContrib="2" flow="480.00" occupancy="3.52" speed="18.98" length="5.00" nVehEntered="2"/>
    <interval begin="135.00" end="150.00" id="ild_out:nt4,nt5" nVehContrib="5" flow="1200.00" occupancy="31.88" speed="6.61" length="5.00" nVehEntered="6"/>
    <interval begin="135.00" end="150.00" id="ild_out:nt3,nt2" nVehContrib="1" flow="240.00" occupancy="1.67" speed="19.96" length="5.00" nVehEntered="1"/>
    <interval begin="150.00" end="165.00" id="ild_out:np1,nt1" nVehContrib="2" flow="480.00" occupancy="5.51" speed="12.11" length="5.00" nVehEntered="2"/>
    <interval begin="150.00" end="165.00" id="ild_out:np2,nt1" nVehContrib="1" flow="240.00" occupancy="2.60" speed="12.84" length="5.00" nVehEntered="1"/>
    <interval begin="150.00" end="165.00" id="ild_out:np3,nt1" nVehContrib="2" flow="480.00" occupancy="6.06" speed="11.00" length="5.00" nVehEntered="2"/>
    <interval begin="150.00" end="165.00" id="ild_out:np8,nt4" nVehContrib="3" flow="720.00" occupancy="11.00" speed="5.56" length="5.00" nVehEntered="2"/>
    <interval begin="150.00" end="165.00" id="ild_out:np9,nt4" nVehContrib="1" flow="240.00" occupancy="28.14" speed="8.20" length="5.00" nVehEntered="2"/>
    <interval begin="150.00" end="165.00" id="ild_out:nt1,nt2" nVehContrib="8" flow="1920.00" occupancy="22.21" speed="10.95" length="5.00" nVehEntered="8"/>
    <interval begin="150.00" end="165.00" id="ild_out:nt1,npc" nVehContrib="3" flow="720.00" occupancy="5.33" speed="18.78" length="5.00" nVehEntered="3"/>
    <interval begin="150.00" end="165.00" id="ild_out:nt1,nt6" nVehContrib="8" flow="1920.00" occupancy="25.13" speed="9.35" length="5.00" nVehEntered="7"/>
    <interval begin="150.00" end="165.00" id="ild_out:npc,nt3" nVehContrib="1" flow="240.00" occupancy="1.73" speed="19.30" length="5.00" nVehEntered="1"/>
    <interval begin="150.00" end="165.00" id="ild_out:npc,nt5" nVehContrib="0" flow="0.00" occupancy="0.00" speed="-1.00" length="-1.00" nVehEntered="0"/>
    <interval begin="150.00" end="165.00" id="ild_out:nt5,nt6" nVehContrib="0" flow="0.00" occupancy="75.63" speed="-1.00" length="-1.00" nVehEntered="1"/>
    <interval begin="150.00" end="165.00" id="ild_out:nt4,nt3" nVehContrib="2" flow="480.00" occupancy="3.46" speed="19.30" length="5.00" nVehEntered="2"/>
    <interval begin="150.00" end="165.00" id="ild_out:nt4,nt5" nVehContrib="0" flow="0.00" occupancy="100.00" speed="-1.00" length="-1.00" nVehEntered="0"/>
    <interval begin="150.00" end="165.00" id="ild_out:nt3,nt2" nVehContrib="1" flow="240.00" occupancy="1.82" speed="18.35" length="5.00" nVehEntered="1"/>
    <interval begin="165.00" end="180.00" id="ild_out:np1,nt1" nVehContrib="1" flow="240.00" occupancy="3.03" speed="11.00" length="5.00" nVehEntered="1"/>
    <interval begin="165.00" end="180.00" id="ild_out:np2,nt1" nVehContrib="1" flow="240.00" occupancy="2.75" speed="12.12" length="5.00" nVehEntered="1"/>
    <interval begin="165.00" end="180.00" id="ild_out:np3,nt1" nVehContrib="1" flow="240.00" occupancy="2.93" speed="11.40" length="5.00" nVehEntered="1"/>
    <interval begin="165.00" end="180.00" id="ild_out:np8,nt4" nVehContrib="2" flow="480.00" occupancy="5.28" speed="12.78" length="5.00" nVehEntered="2"/>
    <interval begin="165.00" end="180.00" id="ild_out:np9,nt4" nVehContrib="3" flow="720.00" occupancy="56.37" speed="2.31" length="5.00" nVehEntered="2"/>
    <interval begin="165.00" end="180.00" id="ild_out:nt1,nt2" nVehContrib="2" flow="480.00" occupancy="73.81" speed="9.71" length="5.00" nVehEntered="2"/>
    <interval begin="165.00" end="180.00" id="ild_out:nt1,npc" nVehContrib="0" flow="0.00" occupancy="0.00" speed="-1.00" length="-1.00" nVehEntered="0"/>
    <interval begin="165.00" end="180.00" id="ild_out:nt1,nt6" nVehContrib="2" flow="480.00" occupancy="70.38" speed="7.88" length="5.00" nVehEntered="3"/>
    <interval begin="165.00" end="180.00" id="ild_out:npc,nt3" nVehContrib="2" flow="480.00" occupancy="3.63" speed="18.40" length="5.00" nVehEntered="2"/>
    <interval begin="165.00" end="180.00" id="ild_out:npc,nt5" nVehContrib="1" flow="240.00" occupancy="1.67" speed="19.91" length="5.00" nVehEntered="1"/>
    <interval begin="165.00" end="180.00" id="ild_out:nt5,nt6" nVehContrib="4" flow="960.00" occupancy="40.27" speed="13.32" length="5.00" nVehEntered="3"/>
    <interval begin="165.00" end="180.00" id="ild_out:nt4,nt3" nVehContrib="1" flow="240.00" occupancy="1.76" speed="18.92" length="5.00" nVehEntered="1"/>
    <interval begin="165.00" end="180.00" id="ild_out:nt4,nt5" nVehContrib="3" flow="720.00" occupancy="55.48" speed="2.62" length="5.00" nVehEntered="3"/>
    <interval begin="165.00" end="180.00" id="ild_out:nt3,nt2" nVehContrib="3" flow="720.00" occupancy="5.15" speed="19.43" length="5.00" nVehEntered="3"/>
    <interval begin="180.00" end="195.00" id="ild_out:np1,nt1" nVehContrib="2" flow="480.00" occupancy="5.84" speed="11.42" length="5.00" nVehEntered="2"/>
    <interval begin="180.00" end="195.00" id="ild_out:np2,nt1" nVehContrib="1" flow="240.00" occupancy="3.61" speed="9.24" length="5.00" nVehEntered="1"/>
    <interval begin="180.00" end="195.00" id="ild_out:np3,nt1" nVehContrib="2" flow="480.00" occupancy="6.06" speed="11.01" length="5.00" nVehEntered="2"/>
    <interval begin="180.00" end="195.00" id="ild_out:np8,nt4" nVehContrib="1" flow="240.00" occupancy="55.62" speed="0.74" length="5.00" nVehEntered="2"/>
    <interval begin="180.00" end="195.00" id="ild_out:np9,nt4" nVehContrib="0" flow="0.00" occupancy="75.44" speed="-1.00" length="-1.00" nVehEntered="1"/>
    <interval begin="180.00" end="195.00" id="ild_out:nt1,nt2" nVehContrib="2" flow="480.00" occupancy="76.58" speed="2.91" length="5.00" nVehEntered="2"/>
    <interval begin="180.00" end="195.00" id="ild_out:nt1,npc" nVehContrib="2" flow="480.00" occupancy="3.43" speed="19.43" length="5.00" nVehEntered="2"/>
    <interval begin="180.00" end="195.00" id="ild_out:nt1,nt6" nVehContrib="2" flow="480.00" occupancy="76.05" speed="3.45" length="5.00" nVehEntered="1"/>
    <interval begin="180.00" end="195.00" id="ild_out:npc,nt3" nVehContrib="0" flow="0.00" occupancy="0.00" speed="-1.00" length="-1.00" nVehEntered="0"/>
    <interval begin="180.00" end="195.00" id="ild_out:npc,nt5" nVehContrib="0" flow="0.00" occupancy="0.00" speed="-1.00" length="-1.00" nVehEntered="0"/>
    <interval begin="180.00" end="195.00" id="ild_out:nt5,nt6" nVehContrib="3" flow="720.00" occupancy="6.02" speed="16.99" length="5.00" nVehEntered="3"/>
    <interval begin="180.00" end="195.00" id="ild_out:nt4,nt3" nVehContrib="1" flow="240.00" occupancy="1.80" speed="18.47" length="5.00" nVehEntered="1"/>
    <interval begin="180.00" end="195.00" id="ild_out:nt4,nt5" nVehContrib="3" flow="720.00" occupancy="64.44" speed="4.93" length="5.00" nVehEntered="3"/>
    <interval begin="180.00" end="195.00" id="ild_out:nt3,nt2" nVehContrib="1" flow="240.00" occupancy="1.76" speed="18.96" length="5.00" nVehEntered="1"/>
    <interval begin="195.00" end="210.00" id="ild_out:np1,nt1" nVehContrib="1" flow="240.00" occupancy="2.83" speed="11.78" length="5.00" nVehEntered="1"/>
    <interval begin="195.00" end="210.00" id="ild_out:np2,nt1" nVehContrib="1" flow="240.00" occupancy="3.58" speed="9.32" length="5.00" nVehEntered="1"/>
    <interval begin="195.00" end="210.00" id="ild_out:np3,nt1" nVehContrib="1" flow="240.00" occupancy="3.31" speed="10.07" length="5.00" nVehEntered="1"/>