<?xml version="1.0" encoding="UTF-8"?>

<!-- generated on Sun May  6 19:45:22 2018 by SUMO Version 0.32.0
<?xml version="1.0" encoding="UTF-8"?>

<configuration xmlns:xsi="http://www.w3.org/2001/XMLSchema-instance" xsi:noNamespaceSchemaLocation="http://sumo.dlr.de/xsd/sumoConfiguration.xsd">

    <input>
        <net-file value="./small_grid/data/exp.net.xml"/>
        <route-files value="./small_grid/data/exp_0.rou.xml"/>
        <additional-files value="./small_grid/data/exp.add.xml"/>
    </input>

    <time>
        <begin value="0"/>
        <end value="7200"/>
    </time>

    <processing>
        <time-to-teleport value="-1"/>
    </processing>

    <report>
        <no-warnings value="true"/>
        <no-step-log value="true"/>
    </report>

    <traci_server>
        <remote-port value="8000"/>
    </traci_server>

    <random_number>
        <seed value="92"/>
    </random_number>

</configuration>
-->

<detector xmlns:xsi="http://www.w3.org/2001/XMLSchema-instance" xsi:noNamespaceSchemaLocation="http://sumo.dlr.de/xsd/det_e1_file.xsd">
    <interval begin="0.00" end="15.00" id="ild_in:nt1,nt2" nVehContrib="0" flow="0.00" occupancy="0.00" speed="-1.00" length="-1.00" nVehEntered="0"/>
    <interval begin="0.00" end="15.00" id="ild_in:nt1,npc" nVehContrib="1" flow="240.00" occupancy="1.77" speed="18.80" length="5.00" nVehEntered="1"/>
    <interval begin="0.00" end="15.00" id="ild_in:nt1,nt6" nVehContrib="0" flow="0.00" occupancy="0.00" speed="-1.00" length="-1.00" nVehEntered="0"/>
    <interval begin="0.00" end="15.00" id="ild_in:npc,nt3" nVehContrib="0" flow="0.00" occupancy="0.00" speed="-1.00" length="-1.00" nVehEntered="0"/>
    <interval begin="0.00" end="15.00" id="ild_in:npc,nt5" nVehContrib="0" flow="0.00" occupancy="0.00" speed="-1.00" length="-1.00" nVehEntered="0"/>
    <interval begin="0.00" end="15.00" id="ild_in:nt5,nt6" nVehContrib="2" flow="480.00" occupancy="3.75" speed="17.78" length="5.00" nVehEntered="2"/>
    <interval begin="0.00" end="15.00" id="ild_in:nt4,nt3" nVehContrib="1" flow="240.00" occupancy="1.88" speed="17.70" length="5.00" nVehEntered="1"/>
    <interval begin="0.00" end="15.00" id="ild_in:nt4,nt5" nVehContrib="0" flow="0.00" occupancy="0.00" speed="-1.00" length="-1.00" nVehEntered="0"/>
    <interval begin="0.00" end="15.00" id="ild_in:nt3,nt2" nVehContrib="0" flow="0.00" occupancy="0.00" speed="-1.00" length="-1.00" nVehEntered="0"/>
    <interval begin="0.00" end="15.00" id="ild_in:nt6,np12" nVehContrib="0" flow="0.00" occupancy="0.00" speed="-1.00" length="-1.00" nVehEntered="0"/>
    <interval begin="0.00" end="15.00" id="ild_in:nt6,np13" nVehContrib="0" flow="0.00" occupancy="0.00" speed="-1.00" length="-1.00" nVehEntered="0"/>
    <interval begin="0.00" end="15.00" id="ild_in:nt2,np4" nVehContrib="0" flow="0.00" occupancy="0.00" speed="-1.00" length="-1.00" nVehEntered="0"/>
    <interval begin="0.00" end="15.00" id="ild_in:nt2,np5" nVehContrib="0" flow="0.00" occupancy="0.00" speed="-1.00" length="-1.00" nVehEntered="0"/>
    <interval begin="0.00" end="15.00" id="ild_in:nt5,np11" nVehContrib="0" flow="0.00" occupancy="0.00" speed="-1.00" length="-1.00" nVehEntered="0"/>
    <interval begin="0.00" end="15.00" id="ild_in:nt3,np6" nVehContrib="0" flow="0.00" occupancy="0.00" speed="-1.00" length="-1.00" nVehEntered="0"/>
    <interval begin="15.00" end="30.00" id="ild_in:nt1,nt2" nVehContrib="3" flow="720.00" occupancy="7.33" speed="13.72" length="5.00" nVehEntered="3"/>
    <interval begin="15.00" end="30.00" id="ild_in:nt1,npc" nVehContrib="0" flow="0.00" occupancy="0.00" speed="-1.00" length="-1.00" nVehEntered="0"/>
    <interval begin="15.00" end="30.00" id="ild_in:nt1,nt6" nVehContrib="2" flow="480.00" occupancy="4.19" speed="16.14" length="5.00" nVehEntered="2"/>
    <interval begin="15.00" end="30.00" id="ild_in:npc,nt3" nVehContrib="1" flow="240.00" occupancy="1.68" speed="19.88" length="5.00" nVehEntered="1"/>
    <interval begin="15.00" end="30.00" id="ild_in:npc,nt5" nVehContrib="0" flow="0.00" occupancy="0.00" speed="-1.00" length="-1.00" nVehEntered="0"/>
    <interval begin="15.00" end="30.00" id="ild_in:nt5,nt6" nVehContrib="2" flow="480.00" occupancy="3.46" speed="19.25" length="5.00" nVehEntered="2"/>
    <interval begin="15.00" end="30.00" id="ild_in:nt4,nt3" nVehContrib="1" flow="240.00" occupancy="2.31" speed="14.42" length="5.00" nVehEntered="1"/>
    <interval begin="15.00" end="30.00" id="ild_in:nt4,nt5" nVehContrib="4" flow="960.00" occupancy="9.49" speed="14.48" length="5.00" nVehEntered="4"/>
    <interval begin="15.00" end="30.00" id="ild_in:nt3,nt2" nVehContrib="1" flow="240.00" occupancy="3.01" speed="11.07" length="5.00" nVehEntered="1"/>
    <interval begin="15.00" end="30.00" id="ild_in:nt6,np12" nVehContrib="3" flow="720.00" occupancy="7.48" speed="13.66" length="5.00" nVehEntered="3"/>
    <interval begin="15.00" end="30.00" id="ild_in:nt6,np13" nVehContrib="0" flow="0.00" occupancy="0.00" speed="-1.00" length="-1.00" nVehEntered="0"/>
    <interval begin="15.00" end="30.00" id="ild_in:nt2,np4" nVehContrib="0" flow="0.00" occupancy="0.00" speed="-1.00" length="-1.00" nVehEntered="0"/>
    <interval begin="15.00" end="30.00" id="ild_in:nt2,np5" nVehContrib="0" flow="0.00" occupancy="0.00" speed="-1.00" length="-1.00" nVehEntered="0"/>
    <interval begin="15.00" end="30.00" id="ild_in:nt5,np11" nVehContrib="0" flow="0.00" occupancy="0.00" speed="-1.00" length="-1.00" nVehEntered="0"/>
    <interval begin="15.00" end="30.00" id="ild_in:nt3,np6" nVehContrib="1" flow="240.00" occupancy="1.68" speed="19.90" length="5.00" nVehEntered="1"/>
    <interval begin="30.00" end="45.00" id="ild_in:nt1,nt2" nVehContrib="0" flow="0.00" occupancy="0.00" speed="-1.00" length="-1.00" nVehEntered="0"/>
    <interval begin="30.00" end="45.00" id="ild_in:nt1,npc" nVehContrib="2" flow="480.00" occupancy="3.99" speed="16.79" length="5.00" nVehEntered="2"/>
    <interval begin="30.00" end="45.00" id="ild_in:nt1,nt6" nVehContrib="1" flow="240.00" occupancy="9.48" speed="3.51" length="5.00" nVehEntered="1"/>
    <interval begin="30.00" end="45.00" id="ild_in:npc,nt3" nVehContrib="0" flow="0.00" occupancy="0.00" speed="-1.00" length="-1.00" nVehEntered="0"/>
    <interval begin="30.00" end="45.00" id="ild_in:npc,nt5" nVehContrib="0" flow="0.00" occupancy="0.00" speed="-1.00" length="-1.00" nVehEntered="0"/>
    <interval begin="30.00" end="45.00" id="ild_in:nt5,nt6" nVehContrib="4" flow="960.00" occupancy="8.40" speed="16.38" length="5.00" nVehEntered="4"/>
    <interval begin="30.00" end="45.00" id="ild_in:nt4,nt3" nVehContrib="0" flow="0.00" occupancy="0.00" speed="-1.00" length="-1.00" nVehEntered="0"/>
    <interval begin="30.00" end="45.00" id="ild_in:nt4,nt5" nVehContrib="2" flow="480.00" occupancy="3.48" speed="19.16" length="5.00" nVehEntered="2"/>
    <interval begin="30.00" end="45.00" id="ild_in:nt3,nt2" nVehContrib="0" flow="0.00" occupancy="0.00" speed="-1.00" length="-1.00" nVehEntered="0"/>
    <interval begin="30.00" end="45.00" id="ild_in:nt6,np12" nVehContrib="1" flow="240.00" occupancy="1.77" speed="18.82" length="5.00" nVehEntered="1"/>
    <interval begin="30.00" end="45.00" id="ild_in:nt6,np13" nVehContrib="0" flow="0.00" occupancy="0.00" speed="-1.00" length="-1.00" nVehEntered="0"/>
    <interval begin="30.00" end="45.00" id="ild_in:nt2,np4" nVehContrib="4" flow="960.00" occupancy="10.22" speed="13.35" length="5.00" nVehEntered="4"/>
    <interval begin="30.00" end="45.00" id="ild_in:nt2,np5" nVehContrib="0" flow="0.00" occupancy="0.00" speed="-1.00" length="-1.00" nVehEntered="0"/>
    <interval begin="30.00" end="45.00" id="ild_in:nt5,np11" nVehContrib="2" flow="480.00" occupancy="4.07" speed="16.39" length="5.00" nVehEntered="2"/>
    <interval begin="30.00" end="45.00" id="ild_in:nt3,np6" nVehContrib="1" flow="240.00" occupancy="2.91" speed="11.46" length="5.00" nVehEntered="1"/>
    <interval begin="45.00" end="60.00" id="ild_in:nt1,nt2" nVehContrib="1" flow="240.00" occupancy="2.13" speed="15.67" length="5.00" nVehEntered="1"/>
    <interval begin="45.00" end="60.00" id="ild_in:nt1,npc" nVehContrib="0" flow="0.00" occupancy="0.00" speed="-1.00" length="-1.00" nVehEntered="0"/>
    <interval begin="45.00" end="60.00" id="ild_in:nt1,nt6" nVehContrib="2" flow="480.00" occupancy="4.79" speed="14.02" length="5.00" nVehEntered="2"/>
    <interval begin="45.00" end="60.00" id="ild_in:npc,nt3" nVehContrib="1" flow="240.00" occupancy="1.70" speed="19.55" length="5.00" nVehEntered="1"/>
    <interval begin="45.00" end="60.00" id="ild_in:npc,nt5" nVehContrib="1" flow="240.00" occupancy="1.87" speed="17.80" length="5.00" nVehEntered="1"/>
    <interval begin="45.00" end="60.00" id="ild_in:nt5,nt6" nVehContrib="4" flow="960.00" occupancy="7.09" speed="18.81" length="5.00" nVehEntered="4"/>
    <interval begin="45.00" end="60.00" id="ild_in:nt4,nt3" nVehContrib="0" flow="0.00" occupancy="0.00" speed="-1.00" length="-1.00" nVehEntered="0"/>
    <interval begin="45.00" end="60.00" id="ild_in:nt4,nt5" nVehContrib="3" flow="720.00" occupancy="7.99" speed="14.98" length="5.00" nVehEntered="3"/>
    <interval begin="45.00" end="60.00" id="ild_in:nt3,nt2" nVehContrib="0" flow="0.00" occupancy="0.00" speed="-1.00" length="-1.00" nVehEntered="0"/>
    <interval begin="45.00" end="60.00" id="ild_in:nt6,np12" nVehContrib="0" flow="0.00" occupancy="0.00" speed="-1.00" length="-1.00" nVehEntered="0"/>
    <interval begin="45.00" end="60.00" id="ild_in:nt6,np13" nVehContrib="8" flow="1920.00" occupancy="17.39" speed="16.62" length="5.00" nVehEntered="9"/>
    <interval begin="45.00" end="60.00" id="ild_in:nt2,np4" nVehContrib="3" flow="720.00" occupancy="7.65" speed="13.07" length="5.00" nVehEntered="3"/>
    <interval begin="45.00" end="60.00" id="ild_in:nt2,np5" nVehContrib="1" flow="240.00" occupancy="3.12" speed="10.68" length="5.00" nVehEntered="1"/>
    <interval begin="45.00" end="60.00" id="ild_in:nt5,np11" nVehContrib="3" flow="720.00" occupancy="5.39" speed="18.58" length="5.00" nVehEntered="3"/>
    <interval begin="45.00" end="60.00" id="ild_in:nt3,np6" nVehContrib="0" flow="0.00" occupancy="0.00" speed="-1.00" length="-1.00" nVehEntered="0"/>
    <interval begin="60.00" end="75.00" id="ild_in:nt1,nt2" nVehContrib="1" flow="240.00" occupancy="1.97" speed="16.91" length="5.00" nVehEntered="1"/>
    <interval begin="60.00" end="75.00" id="ild_in:nt1,npc" nVehContrib="0" flow="0.00" occupancy="0.00" speed="-1.00" length="-1.00" nVehEntered="0"/>
    <interval begin="60.00" end="75.00" id="ild_in:nt1,nt6" nVehContrib="4" flow="960.00" occupancy="10.71" speed="13.92" length="5.00" nVehEntered="4"/>
    <interval begin="60.00" end="75.00" id="ild_in:npc,nt3" nVehContrib="0" flow="0.00" occupancy="0.00" speed="-1.00" length="-1.00" nVehEntered="0"/>
    <interval begin="60.00" end="75.00" id="ild_in:npc,nt5" nVehContrib="0" flow="0.00" occupancy="0.00" speed="-1.00" length="-1.00" nVehEntered="0"/>
    <interval begin="60.00" end="75.00" id="ild_in:nt5,nt6" nVehContrib="1" flow="240.00" occupancy="2.72" speed="12.24" length="5.00" nVehEntered="1"/>
    <interval begin="60.00" end="75.00" id="ild_in:nt4,nt3" nVehContrib="1" flow="240.00" occupancy="1.82" speed="18.35" length="5.00" nVehEntered="1"/>
    <interval begin="60.00" end="75.00" id="ild_in:nt4,nt5" nVehContrib="1" flow="240.00" occupancy="1.78" speed="18.70" length="5.00" nVehEntered="1"/>
    <interval begin="60.00" end="75.00" id="ild_in:nt3,nt2" nVehContrib="0" flow="0.00" occupancy="0.00" speed="-1.00" length="-1.00" nVehEntered="0"/>
    <interval begin="60.00" end="75.00" id="ild_in:nt6,np12" nVehContrib="0" flow="0.00" occupancy="0.00" speed="-1.00" length="-1.00" nVehEntered="0"/>
    <interval begin="60.00" end="75.00" id="ild_in:nt6,np13" nVehContrib="8" flow="1920.00" occupancy="13.92" speed="17.92" length="5.00" nVehEntered="7"/>
    <interval begin="60.00" end="75.00" id="ild_in:nt2,np4" nVehContrib="8" flow="1920.00" occupancy="15.12" speed="17.68" length="5.00" nVehEntered="8"/>
    <interval begin="60.00" end="75.00" id="ild_in:nt2,np5" nVehContrib="0" flow="0.00" occupancy="0.00" speed="-1.00" length="-1.00" nVehEntered="0"/>
    <interval begin="60.00" end="75.00" id="ild_in:nt5,np11" nVehContrib="0" flow="0.00" occupancy="0.00" speed="-1.00" length="-1.00" nVehEntered="0"/>
    <interval begin="60.00" end="75.00" id="ild_in:nt3,np6" nVehContrib="1" flow="240.00" occupancy="2.76" speed="12.07" length="5.00" nVehEntered="1"/>
    <interval begin="75.00" end="90.00" id="ild_in:nt1,nt2" nVehContrib="0" flow="0.00" occupancy="0.00" speed="-1.00" length="-1.00" nVehEntered="0"/>
    <interval begin="75.00" end="90.00" id="ild_in:nt1,npc" nVehContrib="3" flow="720.00" occupancy="7.43" speed="13.47" length="5.00" nVehEntered="3"/>
    <interval begin="75.00" end="90.00" id="ild_in:nt1,nt6" nVehContrib="3" flow="720.00" occupancy="8.39" speed="14.10" length="5.00" nVehEntered="3"/>
    <interval begin="75.00" end="90.00" id="ild_in:npc,nt3" nVehContrib="1" flow="240.00" occupancy="1.76" speed="18.93" length="5.00" nVehEntered="1"/>
    <interval begin="75.00" end="90.00" id="ild_in:npc,nt5" nVehContrib="1" flow="240.00" occupancy="1.76" speed="18.97" length="5.00" nVehEntered="1"/>
    <interval begin="75.00" end="90.00" id="ild_in:nt5,nt6" nVehContrib="0" flow="0.00" occupancy="0.00" speed="-1.00" length="-1.00" nVehEntered="0"/>
    <interval begin="75.00" end="90.00" id="ild_in:nt4,nt3" nVehContrib="6" flow="1440.00" occupancy="12.66" speed="16.51" length="5.00" nVehEntered="6"/>
    <interval begin="75.00" end="90.00" id="ild_in:nt4,nt5" nVehContrib="4" flow="960.00" occupancy="15.84" speed="11.80" length="5.00" nVehEntered="4"/>
    <interval begin="75.00" end="90.00" id="ild_in:nt3,nt2" nVehContrib="1" flow="240.00" occupancy="1.86" speed="17.95" length="5.00" nVehEntered="1"/>
    <interval begin="75.00" end="90.00" id="ild_in:nt6,np12" nVehContrib="9" flow="2160.00" occupancy="18.61" speed="16.63" length="5.00" nVehEntered="9"/>
    <interval begin="75.00" end="90.00" id="ild_in:nt6,np13" nVehContrib="0" flow="0.00" occupancy="0.00" speed="-1.00" length="-1.00" nVehEntered="0"/>
    <interval begin="75.00" end="90.00" id="ild_in:nt2,np4" nVehContrib="4" flow="960.00" occupancy="7.10" speed="18.79" length="5.00" nVehEntered="4"/>
    <interval begin="75.00" end="90.00" id="ild_in:nt2,np5" nVehContrib="0" flow="0.00" occupancy="0.00" speed="-1.00" length="-1.00" nVehEntered="0"/>
    <interval begin="75.00" end="90.00" id="ild_in:nt5,np11" nVehContrib="0" flow="0.00" occupancy="0.00" speed="-1.00" length="-1.00" nVehEntered="0"/>
    <interval begin="75.00" end="90.00" id="ild_in:nt3,np6" nVehContrib="2" flow="480.00" occupancy="4.38" speed="15.99" length="5.00" nVehEntered="2"/>
    <interval begin="90.00" end="105.00" id="ild_in:nt1,nt2" nVehContrib="2" flow="480.00" occupancy="14.18" speed="8.66" length="5.00" nVehEntered="2"/>
    <interval begin="90.00" end="105.00" id="ild_in:nt1,npc" nVehContrib="1" flow="240.00" occupancy="2.38" speed="13.98" length="5.00" nVehEntered="1"/>
    <interval begin="90.00" end="105.00" id="ild_in:nt1,nt6" nVehContrib="1" flow="240.00" occupancy="1.79" speed="18.58" length="5.00" nVehEntered="1"/>
    <interval begin="90.00" end="105.00" id="ild_in:npc,nt3" nVehContrib="0" flow="0.00" occupancy="0.00" speed="-1.00" length="-1.00" nVehEntered="0"/>
    <interval begin="90.00" end="105.00" id="ild_in:npc,nt5" nVehContrib="1" flow="240.00" occupancy="1.69" speed="19.73" length="5.00" nVehEntered="1"/>
    <interval begin="90.00" end="105.00" id="ild_in:nt5,nt6" nVehContrib="2" flow="480.00" occupancy="5.27" speed="12.65" length="5.00" nVehEntered="2"/>
    <interval begin="90.00" end="105.00" id="ild_in:nt4,nt3" nVehContrib="1" flow="240.00" occupancy="1.89" speed="17.67" length="5.00" nVehEntered="1"/>
    <interval begin="90.00" end="105.00" id="ild_in:nt4,nt5" nVehContrib="4" flow="960.00" occupancy="32.07" speed="8.49" length="5.00" nVehEntered="5"/>
    <interval begin="90.00" end="105.00" id="ild_in:nt3,nt2" nVehContrib="2" flow="480.00" occupancy="3.71" speed="17.98" length="5.00" nVehEntered="2"/>
    <interval begin="90.00" end="105.00" id="ild_in:nt6,np12" nVehContrib="0" flow="0.00" occupancy="0.00" speed="-1.00" length="-1.00" nVehEntered="0"/>
    <interval begin="90.00" end="105.00" id="ild_in:nt6,np13" nVehContrib="0" flow="0.00" occupancy="0.00" speed="-1.00" length="-1.00" nVehEntered="0"/>
    <interval begin="90.00" end="105.00" id="ild_in:nt2,np4" nVehContrib="0" flow="0.00" occupancy="0.00" speed="-1.00" length="-1.00" nVehEntered="0"/>
    <interval begin="90.00" end="105.00" id="ild_in:nt2,np5" nVehContrib="1" flow="240.00" occupancy="1.68" speed="19.82" length="5.00" nVehEntered="1"/>
    <interval begin="90.00" end="105.00" id="ild_in:nt5,np11" nVehContrib="1" flow="240.00" occupancy="2.27" speed="14.67" length="5.00" nVehEntered="1"/>
    <interval begin="90.00" end="105.00" id="ild_in:nt3,np6" nVehContrib="2" flow="480.00" occupancy="3.63" speed="18.40" length="5.00" nVehEntered="2"/>
    <interval begin="105.00" end="120.00" id="ild_in:nt1,nt2" nVehContrib="3" flow="720.00" occupancy="8.82" speed="12.53" length="5.00" nVehEntered="3"/>
    <interval begin="105.00" end="120.00" id="ild_in:nt1,npc" nVehContrib="0" flow="0.00" occupancy="0.00" speed="-1.00" length="-1.00" nVehEntered="0"/>
    <interval begin="105.00" end="120.00" id="ild_in:nt1,nt6" nVehContrib="0" flow="0.00" occupancy="0.00" speed="-1.00" length="-1.00" nVehEntered="0"/>
    <interval begin="105.00" end="120.00" id="ild_in:npc,nt3" nVehContrib="1" flow="240.00" occupancy="1.78" speed="18.67" length="5.00" nVehEntered="1"/>
    <interval begin="105.00" end="120.00" id="ild_in:npc,nt5" nVehContrib="0" flow="0.00" occupancy="0.00" speed="-1.00" length="-1.00" nVehEntered="0"/>
    <interval begin="105.00" end="120.00" id="ild_in:nt5,nt6" nVehContrib="2" flow="480.00" occupancy="7.49" speed="12.86" length="5.00" nVehEntered="3"/>
    <interval begin="105.00" end="120.00" id="ild_in:nt4,nt3" nVehContrib="1" flow="240.00" occupancy="1.86" speed="17.97" length="5.00" nVehEntered="1"/>
    <interval begin="105.00" end="120.00" id="ild_in:nt4,nt5" nVehContrib="1" flow="240.00" occupancy="8.23" speed="1.55" length="5.00" nVehEntered="0"/>
    <interval begin="105.00" end="120.00" id="ild_in:nt3,nt2" nVehContrib="1" flow="240.00" occupancy="2.21" speed="15.06" length="5.00" nVehEntered="1"/>
    <interval begin="105.00" end="120.00" id="ild_in:nt6,np12" nVehContrib="2" flow="480.00" occupancy="3.52" speed="18.92" length="5.00" nVehEntered="2"/>
    <interval begin="105.00" end="120.00" id="ild_in:nt6,np13" nVehContrib="0" flow="0.00" occupancy="0.00" speed="-1.00" length="-1.00" nVehEntered="0"/>
    <interval begin="105.00" end="120.00" id="ild_in:nt2,np4" nVehContrib="9" flow="2160.00" occupancy="18.52" speed="16.68" length="5.00" nVehEntered="9"/>
    <interval begin="105.00" end="120.00" id="ild_in:nt2,np5" nVehContrib="0" flow="0.00" occupancy="0.00" speed="-1.00" length="-1.00" nVehEntered="0"/>
    <interval begin="105.00" end="120.00" id="ild_in:nt5,np11" nVehContrib="2" flow="480.00" occupancy="4.71" speed="15.23" length="5.00" nVehEntered="2"/>
    <interval begin="105.00" end="120.00" id="ild_in:nt3,np6" nVehContrib="1" flow="240.00" occupancy="2.92" speed="11.43" length="5.00" nVehEntered="1"/>
    <interval begin="120.00" end="135.00" id="ild_in:nt1,nt2" nVehContrib="1" flow="240.00" occupancy="3.49" speed="9.54" length="5.00" nVehEntered="1"/>
    <interval begin="120.00" end="135.00" id="ild_in:nt1,npc" nVehContrib="2" flow="480.00" occupancy="3.74" speed="17.84" length="5.00" nVehEntered="2"/>
    <interval begin="120.00" end="135.00" id="ild_in:nt1,nt6" nVehContrib="0" flow="0.00" occupancy="0.00" speed="-1.00" length="-1.00" nVehEntered="0"/>
    <interval begin="120.00" end="135.00" id="ild_in:npc,nt3" nVehContrib="0" flow="0.00" occupancy="0.00" speed="-1.00" length="-1.00" nVehEntered="0"/>
    <interval begin="120.00" end="135.00" id="ild_in:npc,nt5" nVehContrib="1" flow="240.00" occupancy="1.71" speed="19.45" length="5.00" nVehEntered="1"/>
    <interval begin="120.00" end="135.00" id="ild_in:nt5,nt6" nVehContrib="6" flow="1440.00" occupancy="10.90" speed="15.43" length="5.00" nVehEntered="5"/>
    <interval begin="120.00" end="135.00" id="ild_in:nt4,nt3" nVehContrib="1" flow="240.00" occupancy="2.47" speed="13.50" length="5.00" nVehEntered="1"/>
    <interval begin="120.00" end="135.00" id="ild_in:nt4,nt5" nVehContrib="3" flow="720.00" occupancy="50.16" speed="2.56" length="5.00" nVehEntered="3"/>
    <interval begin="120.00" end="135.00" id="ild_in:nt3,nt2" nVehContrib="1" flow="240.00" occupancy="1.74" speed="19.17" length="5.00" nVehEntered="1"/>
    <interval begin="120.00" end="135.00" id="ild_in:nt6,np12" nVehContrib="4" flow="960.00" occupancy="7.38" speed="18.51" length="5.00" nVehEntered="5"/>
    <interval begin="120.00" end="135.00" id="ild_in:nt6,np13" nVehContrib="0" flow="0.00" occupancy="0.00" speed="-1.00" length="-1.00" nVehEntered="0"/>
    <interval begin="120.00" end="135.00" id="ild_in:nt2,np4" nVehContrib="9" flow="2160.00" occupancy="17.26" speed="17.98" length="5.00" nVehEntered="10"/>
    <interval begin="120.00" end="135.00" id="ild_in:nt2,np5" nVehContrib="0" flow="0.00" occupancy="0.00" speed="-1.00" length="-1.00" nVehEntered="0"/>
    <interval begin="120.00" end="135.00" id="ild_in:nt5,np11" nVehContrib="1" flow="240.00" occupancy="1.90" speed="17.52" length="5.00" nVehEntered="1"/>
    <interval begin="120.00" end="135.00" id="ild_in:nt3,np6" nVehContrib="0" flow="0.00" occupancy="0.00" speed="-1.00" length="-1.00" nVehEntered="0"/>
    <interval begin="135.00" end="150.00" id="ild_in:nt1,nt2" nVehContrib="1" flow="240.00" occupancy="1.75" speed="19.05" length="5.00" nVehEntered="1"/>
    <interval begin="135.00" end="150.00" id="ild_in:nt1,npc" nVehContrib="1" flow="240.00" occupancy="1.88" speed="17.72" length="5.00" nVehEntered="1"/>
    <interval begin="135.00" end="150.00" id="ild_in:nt1,nt6" nVehContrib="2" flow="480.00" occupancy="21.98" speed="3.23" length="5.00" nVehEntered="2"/>
    <interval begin="135.00" end="150.00" id="ild_in:npc,nt3" nVehContrib="1" flow="240.00" occupancy="1.89" speed="17.68" length="5.00" nVehEntered="1"/>
    <interval begin="135.00" end="150.00" id="ild_in:npc,nt5" nVehContrib="0" flow="0.00" occupancy="0.00" speed="-1.00" length="-1.00" nVehEntered="0"/>
    <interval begin="135.00" end="150.00" id="ild_in:nt5,nt6" nVehContrib="0" flow="0.00" occupancy="0.00" speed="-1.00" length="-1.00" nVehEntered="0"/>
    <interval begin="135.00" end="150.00" id="ild_in:nt4,nt3" nVehContrib="0" flow="0.00" occupancy="0.00" speed="-1.00" length="-1.00" nVehEntered="0"/>
    <interval begin="135.00" end="150.00" id="ild_in:nt4,nt5" nVehContrib="1" flow="240.00" occupancy="40.56" speed="1.11" length="5.00" nVehEntered="2"/>
    <interval begin="135.00" end="150.00" id="ild_in:nt3,nt2" nVehContrib="0" flow="0.00" occupancy="0.00" speed="-1.00" length="-1.00" nVehEntered="0"/>
    <interval begin="135.00" end="150.00" id="ild_in:nt6,np12" nVehContrib="4" flow="960.00" occupancy="6.80" speed="19.19" length="5.00" nVehEntered="3"/>
    <interval begin="135.00" end="150.00" id="ild_in:nt6,np13" nVehContrib="0" flow="0.00" occupancy="0.00" speed="-1.00" length="-1.00" nVehEntered="0"/>
    <interval begin="135.00" end="150.00" id="ild_in:nt2,np4" nVehContrib="9" flow="2160.00" occupancy="15.81" speed="18.45" length="5.00" nVehEntered="8"/>
    <interval begin="135.00" end="150.00" id="ild_in:nt2,np5" nVehContrib="0" flow="0.00" occupancy="0.00" speed="-1.00" length="-1.00" nVehEntered="0"/>
    <interval begin="135.00" end="150.00" id="ild_in:nt5,np11" nVehContrib="1" flow="240.00" occupancy="1.69" speed="19.67" length="5.00" nVehEntered="1"/>
    <interval begin="135.00" end="150.00" id="ild_in:nt3,np6" nVehContrib="2" flow="480.00" occupancy="5.48" speed="12.55" length="5.00" nVehEntered="2"/>
    <interval begin="150.00" end="165.00" id="ild_in:nt1,nt2" nVehContrib="2" flow="480.00" occupancy="11.81" speed="6.65" length="5.00" nVehEntered="2"/>
    <interval begin="150.00" end="165.00" id="ild_in:nt1,npc" nVehContrib="1" flow="240.00" occupancy="2.12" speed="15.70" length="5.00" nVehEntered="1"/>
    <interval begin="150.00" end="165.00" id="ild_in:nt1,nt6" nVehContrib="3" flow="720.00" occupancy="8.29" speed="12.89" length="5.00" nVehEntered="3"/>
    <interval begin="150.00" end="165.00" id="ild_in:npc,nt3" nVehContrib="0" flow="0.00" occupancy="0.00" speed="-1.00" length="-1.00" nVehEntered="0"/>
    <interval begin="150.00" end="165.00" id="ild_in:npc,nt5" nVehContrib="1" flow="240.00" occupancy="1.78" speed="18.77" length="5.00" nVehEntered="1"/>
    <interval begin="150.00" end="165.00" id="ild_in:nt5,nt6" nVehContrib="0" flow="0.00" occupancy="0.00" speed="-1.00" length="-1.00" nVehEntered="0"/>
    <interval begin="150.00" end="165.00" id="ild_in:nt4,nt3" nVehContrib="1" flow="240.00" occupancy="3.23" speed="10.32" length="5.00" nVehEntered="1"/>
    <interval begin="150.00" end="165.00" id="ild_in:nt4,nt5" nVehContrib="3" flow="720.00" occupancy="48.92" speed="3.76" length="5.00" nVehEntered="3"/>
    <interval begin="150.00" end="165.00" id="ild_in:nt3,nt2" nVehContrib="1" flow="240.00" occupancy="1.90" speed="17.54" length="5.00" nVehEntered="1"/>
    <interval begin="150.00" end="165.00" id="ild_in:nt6,np12" nVehContrib="0" flow="0.00" occupancy="0.00" speed="-1.00" length="-1.00" nVehEntered="0"/>
    <interval begin="150.00" end="165.00" id="ild_in:nt6,np13" nVehContrib="0" flow="0.00" occupancy="0.00" speed="-1.00" length="-1.00" nVehEntered="0"/>
    <interval begin="150.00" end="165.00" id="ild_in:nt2,np4" nVehContrib="5" flow="1200.00" occupancy="8.79" speed="18.97" length="5.00" nVehEntered="5"/>
    <interval begin="150.00" end="165.00" id="ild_in:nt2,np5" nVehContrib="0" flow="0.00" occupancy="0.00" speed="-1.00" length="-1.00" nVehEntered="0"/>
    <interval begin="150.00" end="165.00" id="ild_in:nt5,np11" nVehContrib="0" flow="0.00" occupancy="0.00" speed="-1.00" length="-1.00" nVehEntered="0"/>
    <interval begin="150.00" end="165.00" id="ild_in:nt3,np6" nVehContrib="0" flow="0.00" occupancy="0.00" speed="-1.00" length="-1.00" nVehEntered="0"/>
    <interval begin="165.00" end="180.00" id="ild_in:nt1,nt2" nVehContrib="0" flow="0.00" occupancy="0.00" speed="-1.00" length="-1.00" nVehEntered="0"/>
    <interval begin="165.00" end="180.00" id="ild_in:nt1,npc" nVehContrib="3" flow="720.00" occupancy="6.71" speed="15.17" length="5.00" nVehEntered="3"/>
    <interval begin="165.00" end="180.00" id="ild_in:nt1,nt6" nVehContrib="3" flow="720.00" occupancy="19.79" speed="6.02" length="5.00" nVehEntered="3"/>
    <interval begin="165.00" end="180.00" id="ild_in:npc,nt3" nVehContrib="3" flow="720.00" occupancy="5.38" speed="18.62" length="5.00" nVehEntered="3"/>
    <interval begin="165.00" end="180.00" id="ild_in:npc,nt5" nVehContrib="0" flow="0.00" occupancy="0.00" speed="-1.00" length="-1.00" nVehEntered="0"/>
    <interval begin="165.00" end="180.00" id="ild_in:nt5,nt6" nVehContrib="0" flow="0.00" occupancy="0.00" speed="-1.00" length="-1.00" nVehEntered="0"/>
    <interval begin="165.00" end="180.00" id="ild_in:nt4,nt3" nVehContrib="0" flow="0.00" occupancy="0.00" speed="-1.00" length="-1.00" nVehEntered="0"/>
    <interval begin="165.00" end="180.00" id="ild_in:nt4,nt5" nVehContrib="1" flow="240.00" occupancy="2.46" speed="1.15" length="5.00" nVehEntered="0"/>
    <interval begin="165.00" end="180.00" id="ild_in:nt3,nt2" nVehContrib="0" flow="0.00" occupancy="0.00" speed="-1.00" length="-1.00" nVehEntered="0"/>
    <interval begin="165.00" end="180.00" id="ild_in:nt6,np12" nVehContrib="0" flow="0.00" occupancy="0.00" speed="-1.00" length="-1.00" nVehEntered="0"/>
    <interval begin="165.00" end="180.00" id="ild_in:nt6,np13" nVehContrib="4" flow="960.00" occupancy="9.40" speed="14.62" length="5.00" nVehEntered="4"/>
    <interval begin="165.00" end="180.00" id="ild_in:nt2,np4" nVehContrib="0" flow="0.00" occupancy="0.00" speed="-1.00" length="-1.00" nVehEntered="0"/>
    <interval begin="165.00" end="180.00" id="ild_in:nt2,np5" nVehContrib="5" flow="1200.00" occupancy="11.03" speed="15.64" length="5.00" nVehEntered="5"/>
    <interval begin="165.00" end="180.00" id="ild_in:nt5,np11" nVehContrib="1" flow="240.00" occupancy="1.73" speed="19.28" length="5.00" nVehEntered="1"/>
    <interval begin="165.00" end="180.00" id="ild_in:nt3,np6" nVehContrib="1" flow="240.00" occupancy="1.71" speed="19.48" length="5.00" nVehEntered="1"/>
    <interval begin="180.00" end="195.00" id="ild_in:nt1,nt2" nVehContrib="0" flow="0.00" occupancy="0.00" speed="-1.00" length="-1.00" nVehEntered="0"/>
    <interval begin="180.00" end="195.00" id="ild_in:nt1,npc" nVehContrib="1" flow="240.00" occupancy="2.03" speed="16.45" length="5.00" nVehEntered="1"/>
    <interval begin="180.00" end="195.00" id="ild_in:nt1,nt6" nVehContrib="0" flow="0.00" occupancy="86.49" speed="-1.00" length="-1.00" nVehEntered="1"/>
    <interval begin="180.00" end="195.00" id="ild_in:npc,nt3" nVehContrib="1" flow="240.00" occupancy="1.78" speed="18.74" length="5.00" nVehEntered="1"/>
    <interval begin="180.00" end="195.00" id="ild_in:npc,nt5" nVehContrib="1" flow="240.00" occupancy="1.89" speed="17.66" length="5.00" nVehEntered="1"/>
    <interval begin="180.00" end="195.00" id="ild_in:nt5,nt6" nVehContrib="0" flow="0.00" occupancy="0.00" speed="-1.00" length="-1.00" nVehEntered="0"/>
    <interval begin="180.00" end="195.00" id="ild_in:nt4,nt3" nVehContrib="0" flow="0.00" occupancy="0.00" speed="-1.00" length="-1.00" nVehEntered="0"/>
    <interval begin="180.00" end="195.00" id="ild_in:nt4,nt5" nVehContrib="0" flow="0.00" occupancy="0.00" speed="-1.00" length="-1.00" nVehEntered="0"/>