<?xml version="1.0" encoding="UTF-8"?>

<!-- generated on Mon Apr 30 21:46:50 2018 by SUMO Version 0.32.0
<?xml version="1.0" encoding="UTF-8"?>

<configuration xmlns:xsi="http://www.w3.org/2001/XMLSchema-instance" xsi:noNamespaceSchemaLocation="http://sumo.dlr.de/xsd/sumoConfiguration.xsd">

    <input>
        <net-file value="./small_grid/data/exp.net.xml"/>
        <route-files value="./small_grid/data/exp_0.rou.xml"/>
        <additional-files value="./small_grid/data/exp.add.xml"/>
    </input>

    <time>
        <begin value="0"/>
        <end value="7200"/>
    </time>

    <processing>
        <time-to-teleport value="-1"/>
    </processing>

    <report>
        <no-warnings value="true"/>
        <no-step-log value="true"/>
    </report>

    <traci_server>
        <remote-port value="8000"/>
    </traci_server>

    <random_number>
        <seed value="82"/>
    </random_number>

</configuration>
-->

<detector xmlns:xsi="http://www.w3.org/2001/XMLSchema-instance" xsi:noNamespaceSchemaLocation="http://sumo.dlr.de/xsd/det_e1_file.xsd">
    <interval begin="0.00" end="15.00" id="ild_out:np1,nt1" nVehContrib="2" flow="480.00" occupancy="5.97" speed="11.17" length="5.00" nVehEntered="2"/>
    <interval begin="0.00" end="15.00" id="ild_out:np2,nt1" nVehContrib="1" flow="240.00" occupancy="3.47" speed="9.60" length="5.00" nVehEntered="1"/>
    <interval begin="0.00" end="15.00" id="ild_out:np3,nt1" nVehContrib="2" flow="480.00" occupancy="6.51" speed="10.24" length="5.00" nVehEntered="2"/>
    <interval begin="0.00" end="15.00" id="ild_out:np8,nt4" nVehContrib="2" flow="480.00" occupancy="5.49" speed="12.15" length="5.00" nVehEntered="2"/>
    <interval begin="0.00" end="15.00" id="ild_out:np9,nt4" nVehContrib="2" flow="480.00" occupancy="6.35" speed="10.50" length="5.00" nVehEntered="2"/>
    <interval begin="0.00" end="15.00" id="ild_out:nt1,nt2" nVehContrib="1" flow="240.00" occupancy="1.89" speed="17.59" length="5.00" nVehEntered="1"/>
    <interval begin="0.00" end="15.00" id="ild_out:nt1,npc" nVehContrib="0" flow="0.00" occupancy="0.00" speed="-1.00" length="-1.00" nVehEntered="0"/>
    <interval begin="0.00" end="15.00" id="ild_out:nt1,nt6" nVehContrib="2" flow="480.00" occupancy="3.66" speed="18.25" length="5.00" nVehEntered="2"/>
    <interval begin="0.00" end="15.00" id="ild_out:npc,nt3" nVehContrib="0" flow="0.00" occupancy="0.00" speed="-1.00" length="-1.00" nVehEntered="0"/>
    <interval begin="0.00" end="15.00" id="ild_out:npc,nt5" nVehContrib="0" flow="0.00" occupancy="0.00" speed="-1.00" length="-1.00" nVehEntered="0"/>
    <interval begin="0.00" end="15.00" id="ild_out:nt5,nt6" nVehContrib="1" flow="240.00" occupancy="1.70" speed="19.59" length="5.00" nVehEntered="1"/>
    <interval begin="0.00" end="15.00" id="ild_out:nt4,nt3" nVehContrib="1" flow="240.00" occupancy="1.80" speed="18.53" length="5.00" nVehEntered="1"/>
    <interval begin="0.00" end="15.00" id="ild_out:nt4,nt5" nVehContrib="1" flow="240.00" occupancy="1.74" speed="19.18" length="5.00" nVehEntered="1"/>
    <interval begin="0.00" end="15.00" id="ild_out:nt3,nt2" nVehContrib="0" flow="0.00" occupancy="0.00" speed="-1.00" length="-1.00" nVehEntered="0"/>
    <interval begin="15.00" end="30.00" id="ild_out:np1,nt1" nVehContrib="1" flow="240.00" occupancy="3.42" speed="9.76" length="5.00" nVehEntered="1"/>
    <interval begin="15.00" end="30.00" id="ild_out:np2,nt1" nVehContrib="1" flow="240.00" occupancy="2.91" speed="11.44" length="5.00" nVehEntered="1"/>
    <interval begin="15.00" end="30.00" id="ild_out:np3,nt1" nVehContrib="1" flow="240.00" occupancy="3.29" speed="10.14" length="5.00" nVehEntered="1"/>
    <interval begin="15.00" end="30.00" id="ild_out:np8,nt4" nVehContrib="2" flow="480.00" occupancy="5.01" speed="13.31" length="5.00" nVehEntered="2"/>
    <interval begin="15.00" end="30.00" id="ild_out:np9,nt4" nVehContrib="2" flow="480.00" occupancy="5.13" speed="13.00" length="5.00" nVehEntered="2"/>
    <interval begin="15.00" end="30.00" id="ild_out:nt1,nt2" nVehContrib="4" flow="960.00" occupancy="9.83" speed="15.69" length="5.00" nVehEntered="4"/>
    <interval begin="15.00" end="30.00" id="ild_out:nt1,npc" nVehContrib="0" flow="0.00" occupancy="0.00" speed="-1.00" length="-1.00" nVehEntered="0"/>
    <interval begin="15.00" end="30.00" id="ild_out:nt1,nt6" nVehContrib="3" flow="720.00" occupancy="5.82" speed="17.34" length="5.00" nVehEntered="3"/>
    <interval begin="15.00" end="30.00" id="ild_out:npc,nt3" nVehContrib="0" flow="0.00" occupancy="0.00" speed="-1.00" length="-1.00" nVehEntered="0"/>
    <interval begin="15.00" end="30.00" id="ild_out:npc,nt5" nVehContrib="0" flow="0.00" occupancy="0.00" speed="-1.00" length="-1.00" nVehEntered="0"/>
    <interval begin="15.00" end="30.00" id="ild_out:nt5,nt6" nVehContrib="1" flow="240.00" occupancy="1.81" speed="18.45" length="5.00" nVehEntered="1"/>
    <interval begin="15.00" end="30.00" id="ild_out:nt4,nt3" nVehContrib="1" flow="240.00" occupancy="1.89" speed="17.65" length="5.00" nVehEntered="1"/>
    <interval begin="15.00" end="30.00" id="ild_out:nt4,nt5" nVehContrib="2" flow="480.00" occupancy="3.58" speed="18.65" length="5.00" nVehEntered="2"/>
    <interval begin="15.00" end="30.00" id="ild_out:nt3,nt2" nVehContrib="1" flow="240.00" occupancy="1.74" speed="19.12" length="5.00" nVehEntered="1"/>
    <interval begin="30.00" end="45.00" id="ild_out:np1,nt1" nVehContrib="2" flow="480.00" occupancy="6.53" speed="10.24" length="5.00" nVehEntered="2"/>
    <interval begin="30.00" end="45.00" id="ild_out:np2,nt1" nVehContrib="1" flow="240.00" occupancy="2.94" speed="11.35" length="5.00" nVehEntered="1"/>
    <interval begin="30.00" end="45.00" id="ild_out:np3,nt1" nVehContrib="2" flow="480.00" occupancy="5.09" speed="13.12" length="5.00" nVehEntered="2"/>
    <interval begin="30.00" end="45.00" id="ild_out:np8,nt4" nVehContrib="2" flow="480.00" occupancy="5.71" speed="11.71" length="5.00" nVehEntered="2"/>
    <interval begin="30.00" end="45.00" id="ild_out:np9,nt4" nVehContrib="2" flow="480.00" occupancy="5.98" speed="11.20" length="5.00" nVehEntered="2"/>
    <interval begin="30.00" end="45.00" id="ild_out:nt1,nt2" nVehContrib="5" flow="1200.00" occupancy="12.58" speed="14.56" length="5.00" nVehEntered="5"/>
    <interval begin="30.00" end="45.00" id="ild_out:nt1,npc" nVehContrib="3" flow="720.00" occupancy="5.29" speed="18.93" length="5.00" nVehEntered="3"/>
    <interval begin="30.00" end="45.00" id="ild_out:nt1,nt6" nVehContrib="3" flow="720.00" occupancy="35.09" speed="6.65" length="5.00" nVehEntered="3"/>
    <interval begin="30.00" end="45.00" id="ild_out:npc,nt3" nVehContrib="0" flow="0.00" occupancy="0.00" speed="-1.00" length="-1.00" nVehEntered="0"/>
    <interval begin="30.00" end="45.00" id="ild_out:npc,nt5" nVehContrib="0" flow="0.00" occupancy="0.00" speed="-1.00" length="-1.00" nVehEntered="0"/>
    <interval begin="30.00" end="45.00" id="ild_out:nt5,nt6" nVehContrib="3" flow="720.00" occupancy="5.34" speed="18.74" length="5.00" nVehEntered="3"/>
    <interval begin="30.00" end="45.00" id="ild_out:nt4,nt3" nVehContrib="4" flow="960.00" occupancy="7.96" speed="17.00" length="5.00" nVehEntered="4"/>
    <interval begin="30.00" end="45.00" id="ild_out:nt4,nt5" nVehContrib="3" flow="720.00" occupancy="6.76" speed="14.82" length="5.00" nVehEntered="3"/>
    <interval begin="30.00" end="45.00" id="ild_out:nt3,nt2" nVehContrib="0" flow="0.00" occupancy="0.00" speed="-1.00" length="-1.00" nVehEntered="0"/>
    <interval begin="45.00" end="60.00" id="ild_out:np1,nt1" nVehContrib="1" flow="240.00" occupancy="2.57" speed="12.97" length="5.00" nVehEntered="1"/>
    <interval begin="45.00" end="60.00" id="ild_out:np2,nt1" nVehContrib="1" flow="240.00" occupancy="2.66" speed="12.54" length="5.00" nVehEntered="1"/>
    <interval begin="45.00" end="60.00" id="ild_out:np3,nt1" nVehContrib="2" flow="480.00" occupancy="5.66" speed="11.79" length="5.00" nVehEntered="2"/>
    <interval begin="45.00" end="60.00" id="ild_out:np8,nt4" nVehContrib="2" flow="480.00" occupancy="5.76" speed="11.61" length="5.00" nVehEntered="2"/>
    <interval begin="45.00" end="60.00" id="ild_out:np9,nt4" nVehContrib="2" flow="480.00" occupancy="5.62" speed="12.20" length="5.00" nVehEntered="2"/>
    <interval begin="45.00" end="60.00" id="ild_out:nt1,nt2" nVehContrib="1" flow="240.00" occupancy="90.42" speed="0.37" length="5.00" nVehEntered="1"/>
    <interval begin="45.00" end="60.00" id="ild_out:nt1,npc" nVehContrib="3" flow="720.00" occupancy="5.25" speed="19.06" length="5.00" nVehEntered="3"/>
    <interval begin="45.00" end="60.00" id="ild_out:nt1,nt6" nVehContrib="1" flow="240.00" occupancy="81.50" speed="7.55" length="5.00" nVehEntered="2"/>
    <interval begin="45.00" end="60.00" id="ild_out:npc,nt3" nVehContrib="2" flow="480.00" occupancy="3.58" speed="18.64" length="5.00" nVehEntered="2"/>
    <interval begin="45.00" end="60.00" id="ild_out:npc,nt5" nVehContrib="2" flow="480.00" occupancy="3.40" speed="19.60" length="5.00" nVehEntered="2"/>
    <interval begin="45.00" end="60.00" id="ild_out:nt5,nt6" nVehContrib="5" flow="1200.00" occupancy="8.80" speed="18.97" length="5.00" nVehEntered="5"/>
    <interval begin="45.00" end="60.00" id="ild_out:nt4,nt3" nVehContrib="2" flow="480.00" occupancy="3.56" speed="18.79" length="5.00" nVehEntered="2"/>
    <interval begin="45.00" end="60.00" id="ild_out:nt4,nt5" nVehContrib="6" flow="1440.00" occupancy="14.88" speed="14.44" length="5.00" nVehEntered="6"/>
    <interval begin="45.00" end="60.00" id="ild_out:nt3,nt2" nVehContrib="3" flow="720.00" occupancy="5.44" speed="18.40" length="5.00" nVehEntered="3"/>
    <interval begin="60.00" end="75.00" id="ild_out:np1,nt1" nVehContrib="2" flow="480.00" occupancy="5.99" speed="11.15" length="5.00" nVehEntered="2"/>
    <interval begin="60.00" end="75.00" id="ild_out:np2,nt1" nVehContrib="1" flow="240.00" occupancy="2.72" speed="12.27" length="5.00" nVehEntered="1"/>
    <interval begin="60.00" end="75.00" id="ild_out:np3,nt1" nVehContrib="1" flow="240.00" occupancy="3.09" speed="10.80" length="5.00" nVehEntered="1"/>
    <interval begin="60.00" end="75.00" id="ild_out:np8,nt4" nVehContrib="2" flow="480.00" occupancy="5.30" speed="12.60" length="5.00" nVehEntered="2"/>
    <interval begin="60.00" end="75.00" id="ild_out:np9,nt4" nVehContrib="2" flow="480.00" occupancy="5.13" speed="13.01" length="5.00" nVehEntered="2"/>
    <interval begin="60.00" end="75.00" id="ild_out:nt1,nt2" nVehContrib="3" flow="720.00" occupancy="51.46" speed="6.69" length="5.00" nVehEntered="4"/>
    <interval begin="60.00" end="75.00" id="ild_out:nt1,npc" nVehContrib="1" flow="240.00" occupancy="1.87" speed="19.77" length="5.00" nVehEntered="2"/>
    <interval begin="60.00" end="75.00" id="ild_out:nt1,nt6" nVehContrib="0" flow="0.00" occupancy="100.00" speed="-1.00" length="-1.00" nVehEntered="0"/>
    <interval begin="60.00" end="75.00" id="ild_out:npc,nt3" nVehContrib="0" flow="0.00" occupancy="0.00" speed="-1.00" length="-1.00" nVehEntered="0"/>
    <interval begin="60.00" end="75.00" id="ild_out:npc,nt5" nVehContrib="2" flow="480.00" occupancy="3.59" speed="18.59" length="5.00" nVehEntered="2"/>
    <interval begin="60.00" end="75.00" id="ild_out:nt5,nt6" nVehContrib="1" flow="240.00" occupancy="2.65" speed="19.55" length="5.00" nVehEntered="2"/>
    <interval begin="60.00" end="75.00" id="ild_out:nt4,nt3" nVehContrib="4" flow="960.00" occupancy="10.42" speed="14.38" length="5.00" nVehEntered="4"/>
    <interval begin="60.00" end="75.00" id="ild_out:nt4,nt5" nVehContrib="2" flow="480.00" occupancy="58.86" speed="2.13" length="5.00" nVehEntered="2"/>
    <interval begin="60.00" end="75.00" id="ild_out:nt3,nt2" nVehContrib="0" flow="0.00" occupancy="0.30" speed="-1.00" length="-1.00" nVehEntered="1"/>
    <interval begin="75.00" end="90.00" id="ild_out:np1,nt1" nVehContrib="1" flow="240.00" occupancy="2.59" speed="12.86" length="5.00" nVehEntered="1"/>
    <interval begin="75.00" end="90.00" id="ild_out:np2,nt1" nVehContrib="1" flow="240.00" occupancy="2.95" speed="11.31" length="5.00" nVehEntered="1"/>
    <interval begin="75.00" end="90.00" id="ild_out:np3,nt1" nVehContrib="2" flow="480.00" occupancy="5.91" speed="11.37" length="5.00" nVehEntered="2"/>
    <interval begin="75.00" end="90.00" id="ild_out:np8,nt4" nVehContrib="1" flow="240.00" occupancy="4.66" speed="10.62" length="5.00" nVehEntered="2"/>
    <interval begin="75.00" end="90.00" id="ild_out:np9,nt4" nVehContrib="3" flow="720.00" occupancy="9.22" speed="10.86" length="5.00" nVehEntered="3"/>
    <interval begin="75.00" end="90.00" id="ild_out:nt1,nt2" nVehContrib="5" flow="1200.00" occupancy="51.35" speed="7.58" length="5.00" nVehEntered="4"/>
    <interval begin="75.00" end="90.00" id="ild_out:nt1,npc" nVehContrib="5" flow="1200.00" occupancy="8.40" speed="19.43" length="5.00" nVehEntered="4"/>
    <interval begin="75.00" end="90.00" id="ild_out:nt1,nt6" nVehContrib="0" flow="0.00" occupancy="100.00" speed="-1.00" length="-1.00" nVehEntered="0"/>
    <interval begin="75.00" end="90.00" id="ild_out:npc,nt3" nVehContrib="0" flow="0.00" occupancy="0.00" speed="-1.00" length="-1.00" nVehEntered="0"/>
    <interval begin="75.00" end="90.00" id="ild_out:npc,nt5" nVehContrib="2" flow="480.00" occupancy="3.70" speed="18.03" length="5.00" nVehEntered="2"/>
    <interval begin="75.00" end="90.00" id="ild_out:nt5,nt6" nVehContrib="7" flow="1680.00" occupancy="12.95" speed="17.42" length="5.00" nVehEntered="6"/>
    <interval begin="75.00" end="90.00" id="ild_out:nt4,nt3" nVehContrib="2" flow="480.00" occupancy="5.99" speed="11.39" length="5.00" nVehEntered="2"/>
    <interval begin="75.00" end="90.00" id="ild_out:nt4,nt5" nVehContrib="7" flow="1680.00" occupancy="26.18" speed="11.27" length="5.00" nVehEntered="8"/>
    <interval begin="75.00" end="90.00" id="ild_out:nt3,nt2" nVehContrib="2" flow="480.00" occupancy="3.38" speed="18.16" length="5.00" nVehEntered="1"/>
    <interval begin="90.00" end="105.00" id="ild_out:np1,nt1" nVehContrib="2" flow="480.00" occupancy="6.40" speed="10.45" length="5.00" nVehEntered="2"/>
    <interval begin="90.00" end="105.00" id="ild_out:np2,nt1" nVehContrib="1" flow="240.00" occupancy="2.67" speed="12.47" length="5.00" nVehEntered="1"/>
    <interval begin="90.00" end="105.00" id="ild_out:np3,nt1" nVehContrib="1" flow="240.00" occupancy="2.77" speed="12.05" length="5.00" nVehEntered="1"/>
    <interval begin="90.00" end="105.00" id="ild_out:np8,nt4" nVehContrib="2" flow="480.00" occupancy="6.37" speed="11.80" length="5.00" nVehEntered="2"/>
    <interval begin="90.00" end="105.00" id="ild_out:np9,nt4" nVehContrib="2" flow="480.00" occupancy="5.11" speed="13.10" length="5.00" nVehEntered="2"/>
    <interval begin="90.00" end="105.00" id="ild_out:nt1,nt2" nVehContrib="4" flow="960.00" occupancy="52.56" speed="11.36" length="5.00" nVehEntered="5"/>
    <interval begin="90.00" end="105.00" id="ild_out:nt1,npc" nVehContrib="0" flow="0.00" occupancy="0.00" speed="-1.00" length="-1.00" nVehEntered="0"/>
    <interval begin="90.00" end="105.00" id="ild_out:nt1,nt6" nVehContrib="3" flow="720.00" occupancy="56.03" speed="3.19" length="5.00" nVehEntered="3"/>
    <interval begin="90.00" end="105.00" id="ild_out:npc,nt3" nVehContrib="2" flow="480.00" occupancy="3.60" speed="18.56" length="5.00" nVehEntered="2"/>
    <interval begin="90.00" end="105.00" id="ild_out:npc,nt5" nVehContrib="2" flow="480.00" occupancy="3.60" speed="18.54" length="5.00" nVehEntered="2"/>
    <interval begin="90.00" end="105.00" id="ild_out:nt5,nt6" nVehContrib="1" flow="240.00" occupancy="3.15" speed="10.58" length="5.00" nVehEntered="1"/>
    <interval begin="90.00" end="105.00" id="ild_out:nt4,nt3" nVehContrib="1" flow="240.00" occupancy="40.28" speed="0.83" length="5.00" nVehEntered="1"/>
    <interval begin="90.00" end="105.00" id="ild_out:nt4,nt5" nVehContrib="0" flow="0.00" occupancy="100.00" speed="-1.00" length="-1.00" nVehEntered="0"/>
    <interval begin="90.00" end="105.00" id="ild_out:nt3,nt2" nVehContrib="1" flow="240.00" occupancy="1.67" speed="19.90" length="5.00" nVehEntered="1"/>
    <interval begin="105.00" end="120.00" id="ild_out:np1,nt1" nVehContrib="1" flow="240.00" occupancy="2.73" speed="12.21" length="5.00" nVehEntered="1"/>
    <interval begin="105.00" end="120.00" id="ild_out:np2,nt1" nVehContrib="1" flow="240.00" occupancy="3.14" speed="10.62" length="5.00" nVehEntered="1"/>
    <interval begin="105.00" end="120.00" id="ild_out:np3,nt1" nVehContrib="2" flow="480.00" occupancy="6.25" speed="10.68" length="5.00" nVehEntered="2"/>
    <interval begin="105.00" end="120.00" id="ild_out:np8,nt4" nVehContrib="2" flow="480.00" occupancy="3.48" speed="11.67" length="5.00" nVehEntered="1"/>
    <interval begin="105.00" end="120.00" id="ild_out:np9,nt4" nVehContrib="2" flow="480.00" occupancy="5.60" speed="11.92" length="5.00" nVehEntered="2"/>
    <interval begin="105.00" end="120.00" id="ild_out:nt1,nt2" nVehContrib="3" flow="720.00" occupancy="62.21" speed="3.22" length="5.00" nVehEntered="3"/>
    <interval begin="105.00" end="120.00" id="ild_out:nt1,npc" nVehContrib="1" flow="240.00" occupancy="1.68" speed="19.86" length="5.00" nVehEntered="1"/>
    <interval begin="105.00" end="120.00" id="ild_out:nt1,nt6" nVehContrib="5" flow="1200.00" occupancy="49.96" speed="8.23" length="5.00" nVehEntered="4"/>
    <interval begin="105.00" end="120.00" id="ild_out:npc,nt3" nVehContrib="0" flow="0.00" occupancy="0.00" speed="-1.00" length="-1.00" nVehEntered="0"/>
    <interval begin="105.00" end="120.00" id="ild_out:npc,nt5" nVehContrib="0" flow="0.00" occupancy="0.00" speed="-1.00" length="-1.00" nVehEntered="0"/>
    <interval begin="105.00" end="120.00" id="ild_out:nt5,nt6" nVehContrib="2" flow="480.00" occupancy="3.67" speed="18.18" length="5.00" nVehEntered="2"/>
    <interval begin="105.00" end="120.00" id="ild_out:nt4,nt3" nVehContrib="3" flow="720.00" occupancy="21.49" speed="14.88" length="5.00" nVehEntered="4"/>
    <interval begin="105.00" end="120.00" id="ild_out:nt4,nt5" nVehContrib="0" flow="0.00" occupancy="100.00" speed="-1.00" length="-1.00" nVehEntered="0"/>
    <interval begin="105.00" end="120.00" id="ild_out:nt3,nt2" nVehContrib="3" flow="720.00" occupancy="5.75" speed="17.42" length="5.00" nVehEntered="3"/>
    <interval begin="120.00" end="135.00" id="ild_out:np1,nt1" nVehContrib="2" flow="480.00" occupancy="6.03" speed="11.08" length="5.00" nVehEntered="2"/>
    <interval begin="120.00" end="135.00" id="ild_out:np2,nt1" nVehContrib="1" flow="240.00" occupancy="3.05" speed="10.93" length="5.00" nVehEntered="1"/>
    <interval begin="120.00" end="135.00" id="ild_out:np3,nt1" nVehContrib="1" flow="240.00" occupancy="2.66" speed="12.55" length="5.00" nVehEntered="1"/>
    <interval begin="120.00" end="135.00" id="ild_out:np8,nt4" nVehContrib="2" flow="480.00" occupancy="5.81" speed="11.50" length="5.00" nVehEntered="2"/>
    <interval begin="120.00" end="135.00" id="ild_out:np9,nt4" nVehContrib="2" flow="480.00" occupancy="5.77" speed="11.60" length="5.00" nVehEntered="2"/>
    <interval begin="120.00" end="135.00" id="ild_out:nt1,nt2" nVehContrib="2" flow="480.00" occupancy="74.48" speed="2.78" length="5.00" nVehEntered="1"/>
    <interval begin="120.00" end="135.00" id="ild_out:nt1,npc" nVehContrib="5" flow="1200.00" occupancy="8.74" speed="19.09" length="5.00" nVehEntered="5"/>
    <interval begin="120.00" end="135.00" id="ild_out:nt1,nt6" nVehContrib="9" flow="2160.00" occupancy="17.83" speed="17.01" length="5.00" nVehEntered="9"/>
    <interval begin="120.00" end="135.00" id="ild_out:npc,nt3" nVehContrib="0" flow="0.00" occupancy="0.00" speed="-1.00" length="-1.00" nVehEntered="0"/>
    <interval begin="120.00" end="135.00" id="ild_out:npc,nt5" nVehContrib="1" flow="240.00" occupancy="1.88" speed="17.69" length="5.00" nVehEntered="1"/>
    <interval begin="120.00" end="135.00" id="ild_out:nt5,nt6" nVehContrib="2" flow="480.00" occupancy="4.27" speed="16.05" length="5.00" nVehEntered="2"/>
    <interval begin="120.00" end="135.00" id="ild_out:nt4,nt3" nVehContrib="3" flow="720.00" occupancy="5.30" speed="10.84" length="5.00" nVehEntered="2"/>
    <interval begin="120.00" end="135.00" id="ild_out:nt4,nt5" nVehContrib="2" flow="480.00" occupancy="65.63" speed="0.96" length="5.00" nVehEntered="2"/>
    <interval begin="120.00" end="135.00" id="ild_out:nt3,nt2" nVehContrib="3" flow="720.00" occupancy="6.14" speed="17.22" length="5.00" nVehEntered="3"/>
    <interval begin="135.00" end="150.00" id="ild_out:np1,nt1" nVehContrib="1" flow="240.00" occupancy="2.98" speed="11.17" length="5.00" nVehEntered="1"/>
    <interval begin="135.00" end="150.00" id="ild_out:np2,nt1" nVehContrib="1" flow="240.00" occupancy="3.26" speed="10.22" length="5.00" nVehEntered="1"/>
    <interval begin="135.00" end="150.00" id="ild_out:np3,nt1" nVehContrib="2" flow="480.00" occupancy="5.53" speed="12.14" length="5.00" nVehEntered="2"/>
    <interval begin="135.00" end="150.00" id="ild_out:np8,nt4" nVehContrib="2" flow="480.00" occupancy="29.88" speed="4.77" length="5.00" nVehEntered="2"/>
    <interval begin="135.00" end="150.00" id="ild_out:np9,nt4" nVehContrib="2" flow="480.00" occupancy="5.64" speed="11.86" length="5.00" nVehEntered="2"/>
    <interval begin="135.00" end="150.00" id="ild_out:nt1,nt2" nVehContrib="8" flow="1920.00" occupancy="22.62" speed="12.91" length="5.00" nVehEntered="8"/>
    <interval begin="135.00" end="150.00" id="ild_out:nt1,npc" nVehContrib="3" flow="720.00" occupancy="5.29" speed="18.94" length="5.00" nVehEntered="3"/>
    <interval begin="135.00" end="150.00" id="ild_out:nt1,nt6" nVehContrib="9" flow="2160.00" occupancy="16.71" speed="17.97" length="5.00" nVehEntered="9"/>
    <interval begin="135.00" end="150.00" id="ild_out:npc,nt3" nVehContrib="2" flow="480.00" occupancy="3.59" speed="18.56" length="5.00" nVehEntered="2"/>
    <interval begin="135.00" end="150.00" id="ild_out:npc,nt5" nVehContrib="4" flow="960.00" occupancy="7.10" speed="18.82" length="5.00" nVehEntered="4"/>
    <interval begin="135.00" end="150.00" id="ild_out:nt5,nt6" nVehContrib="0" flow="0.00" occupancy="42.60" speed="-1.00" length="-1.00" nVehEntered="1"/>
    <interval begin="135.00" end="150.00" id="ild_out:nt4,nt3" nVehContrib="1" flow="240.00" occupancy="2.73" speed="12.21" length="5.00" nVehEntered="1"/>
    <interval begin="135.00" end="150.00" id="ild_out:nt4,nt5" nVehContrib="4" flow="960.00" occupancy="59.74" speed="3.75" length="5.00" nVehEntered="3"/>
    <interval begin="135.00" end="150.00" id="ild_out:nt3,nt2" nVehContrib="2" flow="480.00" occupancy="24.13" speed="11.39" length="5.00" nVehEntered="3"/>
    <interval begin="150.00" end="165.00" id="ild_out:np1,nt1" nVehContrib="2" flow="480.00" occupancy="5.79" speed="11.75" length="5.00" nVehEntered="2"/>
    <interval begin="150.00" end="165.00" id="ild_out:np2,nt1" nVehContrib="1" flow="240.00" occupancy="2.81" speed="11.88" length="5.00" nVehEntered="1"/>
    <interval begin="150.00" end="165.00" id="ild_out:np3,nt1" nVehContrib="2" flow="480.00" occupancy="6.23" speed="10.80" length="5.00" nVehEntered="2"/>
    <interval begin="150.00" end="165.00" id="ild_out:np8,nt4" nVehContrib="2" flow="480.00" occupancy="5.65" speed="11.83" length="5.00" nVehEntered="2"/>
    <interval begin="150.00" end="165.00" id="ild_out:np9,nt4" nVehContrib="2" flow="480.00" occupancy="5.93" speed="11.28" length="5.00" nVehEntered="2"/>
    <interval begin="150.00" end="165.00" id="ild_out:nt1,nt2" nVehContrib="2" flow="480.00" occupancy="68.96" speed="3.27" length="5.00" nVehEntered="3"/>
    <interval begin="150.00" end="165.00" id="ild_out:nt1,npc" nVehContrib="3" flow="720.00" occupancy="5.45" speed="18.35" length="5.00" nVehEntered="3"/>
    <interval begin="150.00" end="165.00" id="ild_out:nt1,nt6" nVehContrib="5" flow="1200.00" occupancy="49.35" speed="15.11" length="5.00" nVehEntered="6"/>
    <interval begin="150.00" end="165.00" id="ild_out:npc,nt3" nVehContrib="2" flow="480.00" occupancy="3.57" speed="18.68" length="5.00" nVehEntered="2"/>
    <interval begin="150.00" end="165.00" id="ild_out:npc,nt5" nVehContrib="0" flow="0.00" occupancy="0.00" speed="-1.00" length="-1.00" nVehEntered="0"/>
    <interval begin="150.00" end="165.00" id="ild_out:nt5,nt6" nVehContrib="2" flow="480.00" occupancy="74.57" speed="2.66" length="5.00" nVehEntered="2"/>
    <interval begin="150.00" end="165.00" id="ild_out:nt4,nt3" nVehContrib="3" flow="720.00" occupancy="23.21" speed="15.20" length="5.00" nVehEntered="4"/>
    <interval begin="150.00" end="165.00" id="ild_out:nt4,nt5" nVehContrib="6" flow="1440.00" occupancy="30.41" speed="7.61" length="5.00" nVehEntered="6"/>
    <interval begin="150.00" end="165.00" id="ild_out:nt3,nt2" nVehContrib="2" flow="480.00" occupancy="5.44" speed="6.82" length="5.00" nVehEntered="1"/>
    <interval begin="165.00" end="180.00" id="ild_out:np1,nt1" nVehContrib="1" flow="240.00" occupancy="2.97" speed="11.24" length="5.00" nVehEntered="1"/>
    <interval begin="165.00" end="180.00" id="ild_out:np2,nt1" nVehContrib="1" flow="240.00" occupancy="2.85" speed="11.71" length="5.00" nVehEntered="1"/>
    <interval begin="165.00" end="180.00" id="ild_out:np3,nt1" nVehContrib="1" flow="240.00" occupancy="2.74" speed="12.16" length="5.00" nVehEntered="1"/>
    <interval begin="165.00" end="180.00" id="ild_out:np8,nt4" nVehContrib="2" flow="480.00" occupancy="5.50" speed="12.14" length="5.00" nVehEntered="2"/>
    <interval begin="165.00" end="180.00" id="ild_out:np9,nt4" nVehContrib="2" flow="480.00" occupancy="5.60" speed="12.26" length="5.00" nVehEntered="2"/>
    <interval begin="165.00" end="180.00" id="ild_out:nt1,nt2" nVehContrib="8" flow="1920.00" occupancy="24.55" speed="10.62" length="5.00" nVehEntered="7"/>
    <interval begin="165.00" end="180.00" id="ild_out:nt1,npc" nVehContrib="3" flow="720.00" occupancy="5.18" speed="19.33" length="5.00" nVehEntered="3"/>
    <interval begin="165.00" end="180.00" id="ild_out:nt1,nt6" nVehContrib="0" flow="0.00" occupancy="100.00" speed="-1.00" length="-1.00" nVehEntered="0"/>
    <interval begin="165.00" end="180.00" id="ild_out:npc,nt3" nVehContrib="2" flow="480.00" occupancy="3.91" speed="18.52" length="5.00" nVehEntered="3"/>
    <interval begin="165.00" end="180.00" id="ild_out:npc,nt5" nVehContrib="1" flow="240.00" occupancy="1.83" speed="18.21" length="5.00" nVehEntered="1"/>
    <interval begin="165.00" end="180.00" id="ild_out:nt5,nt6" nVehContrib="9" flow="2160.00" occupancy="19.80" speed="15.54" length="5.00" nVehEntered="8"/>
    <interval begin="165.00" end="180.00" id="ild_out:nt4,nt3" nVehContrib="2" flow="480.00" occupancy="34.97" speed="7.58" length="5.00" nVehEntered="1"/>
    <interval begin="165.00" end="180.00" id="ild_out:nt4,nt5" nVehContrib="5" flow="1200.00" occupancy="35.66" speed="6.89" length="5.00" nVehEntered="6"/>
    <interval begin="165.00" end="180.00" id="ild_out:nt3,nt2" nVehContrib="1" flow="240.00" occupancy="2.15" speed="15.48" length="5.00" nVehEntered="1"/>
    <interval begin="180.00" end="195.00" id="ild_out:np1,nt1" nVehContrib="2" flow="480.00" occupancy="6.03" speed="11.08" length="5.00" nVehEntered="2"/>
    <interval begin="180.00" end="195.00" id="ild_out:np2,nt1" nVehContrib="1" flow="240.00" occupancy="3.37" speed="9.88" length="5.00" nVehEntered="1"/>
    <interval begin="180.00" end="195.00" id="ild_out:np3,nt1" nVehContrib="2" flow="480.00" occupancy="5.81" speed="11.53" length="5.00" nVehEntered="2"/>
    <interval begin="180.00" end="195.00" id="ild_out:np8,nt4" nVehContrib="2" flow="480.00" occupancy="6.04" speed="11.05" length="5.00" nVehEntered="2"/>
    <interval begin="180.00" end="195.00" id="ild_out:np9,nt4" nVehContrib="2" flow="480.00" occupancy="5.92" speed="11.32" length="5.00" nVehEntered="2"/>
    <interval begin="180.00" end="195.00" id="ild_out:nt1,nt2" nVehContrib="5" flow="1200.00" occupancy="39.06" speed="13.73" length="5.00" nVehEntered="6"/>
    <interval begin="180.00" end="195.00" id="ild_out:nt1,npc" nVehContrib="2" flow="480.00" occupancy="5.37" speed="18.64" length="5.00" nVehEntered="3"/>
    <interval begin="180.00" end="195.00" id="ild_out:nt1,nt6" nVehContrib="0" flow="0.00" occupancy="100.00" speed="-1.00" length="-1.00" nVehEntered="0"/>
    <interval begin="180.00" end="195.00" id="ild_out:npc,nt3" nVehContrib="2" flow="480.00" occupancy="3.48" speed="17.79" length="5.00" nVehEntered="1"/>
    <interval begin="180.00" end="195.00" id="ild_out:npc,nt5" nVehContrib="1" flow="240.00" occupancy="1.68" speed="19.82" length="5.00" nVehEntered="1"/>
    <interval begin="180.00" end="195.00" id="ild_out:nt5,nt6" nVehContrib="9" flow="2160.00" occupancy="16.53" speed="18.23" length="5.00" nVehEntered="9"/>
    <interval begin="180.00" end="195.00" id="ild_out:nt4,nt3" nVehContrib="4" flow="960.00" occupancy="6.94" speed="19.23" length="5.00" nVehEntered="4"/>
    <interval begin="180.00" end="195.00" id="ild_out:nt4,nt5" nVehContrib="0" flow="0.00" occupancy="100.00" speed="-1.00" length="-1.00" nVehEntered="0"/>
    <interval begin="180.00" end="195.00" id="ild_out:nt3,nt2" nVehContrib="2" flow="480.00" occupancy="34.24" speed="7.02" length="5.00" nVehEntered="2"/>
    <interval begin="195.00" end="210.00" id="ild_out:np1,nt1" nVehContrib="1" flow="240.00" occupancy="3.48" speed="9.57" length="5.00" nVehEntered="1"/>
    <interval begin="195.00" end="210.00" id="ild_out:np2,nt1" nVehContrib="1" flow="240.00" occupancy="2.75" speed="12.11" length="5.00" nVehEntered="1"/>
    <interval begin="195.00" end="210.00" id="ild_out:np3,nt1" nVehContrib="1" flow="240.00" occupancy="3.25" speed="10.27" length="5.00" nVehEntered="1"/>
    <interval begin="195.00" end="210.00" id="ild_out:np8,nt4" nVehContrib="2" flow="480.00" occupancy="5.17" speed="12.93" length="5.00" nVehEntered="2"/>