<?xml version="1.0" encoding="UTF-8"?>

<!-- generated on Thu May 17 15:04:44 2018 by SUMO Version 0.32.0
<?xml version="1.0" encoding="UTF-8"?>

<configuration xmlns:xsi="http://www.w3.org/2001/XMLSchema-instance" xsi:noNamespaceSchemaLocation="http://sumo.dlr.de/xsd/sumoConfiguration.xsd">

    <input>
        <net-file value="./small_grid/data/exp.net.xml"/>
        <route-files value="./small_grid/data/exp_0.rou.xml"/>
        <additional-files value="./small_grid/data/exp.add.xml"/>
    </input>

    <output>
        <tripinfo-output value="./output_result/trip.xml"/>
    </output>

    <time>
        <begin value="0"/>
        <end value="7200"/>
    </time>

    <processing>
        <time-to-teleport value="-1"/>
    </processing>

    <report>
        <no-warnings value="true"/>
        <duration-log.disable value="true"/>
        <no-step-log value="true"/>
    </report>

    <traci_server>
        <remote-port value="8000"/>
    </traci_server>

    <random_number>
        <seed value="42"/>
    </random_number>

</configuration>
-->

<detector xmlns:xsi="http://www.w3.org/2001/XMLSchema-instance" xsi:noNamespaceSchemaLocation="http://sumo.dlr.de/xsd/det_e1_file.xsd">
    <interval begin="0.00" end="15.00" id="ild_in:nt1,nt2" nVehContrib="1" flow="240.00" occupancy="12.02" speed="2.77" length="5.00" nVehEntered="1"/>
    <interval begin="0.00" end="15.00" id="ild_in:nt1,npc" nVehContrib="1" flow="240.00" occupancy="1.89" speed="17.64" length="5.00" nVehEntered="1"/>
    <interval begin="0.00" end="15.00" id="ild_in:nt1,nt6" nVehContrib="0" flow="0.00" occupancy="0.00" speed="-1.00" length="-1.00" nVehEntered="0"/>
    <interval begin="0.00" end="15.00" id="ild_in:npc,nt3" nVehContrib="0" flow="0.00" occupancy="0.00" speed="-1.00" length="-1.00" nVehEntered="0"/>
    <interval begin="0.00" end="15.00" id="ild_in:npc,nt5" nVehContrib="0" flow="0.00" occupancy="0.00" speed="-1.00" length="-1.00" nVehEntered="0"/>
    <interval begin="0.00" end="15.00" id="ild_in:nt5,nt6" nVehContrib="0" flow="0.00" occupancy="0.00" speed="-1.00" length="-1.00" nVehEntered="0"/>
    <interval begin="0.00" end="15.00" id="ild_in:nt4,nt3" nVehContrib="0" flow="0.00" occupancy="0.00" speed="-1.00" length="-1.00" nVehEntered="0"/>
    <interval begin="0.00" end="15.00" id="ild_in:nt4,nt5" nVehContrib="2" flow="480.00" occupancy="19.23" speed="7.42" length="5.00" nVehEntered="3"/>
    <interval begin="0.00" end="15.00" id="ild_in:nt3,nt2" nVehContrib="0" flow="0.00" occupancy="0.00" speed="-1.00" length="-1.00" nVehEntered="0"/>
    <interval begin="0.00" end="15.00" id="ild_in:nt6,np12" nVehContrib="0" flow="0.00" occupancy="0.00" speed="-1.00" length="-1.00" nVehEntered="0"/>
    <interval begin="0.00" end="15.00" id="ild_in:nt6,np13" nVehContrib="0" flow="0.00" occupancy="0.00" speed="-1.00" length="-1.00" nVehEntered="0"/>
    <interval begin="0.00" end="15.00" id="ild_in:nt2,np4" nVehContrib="0" flow="0.00" occupancy="0.00" speed="-1.00" length="-1.00" nVehEntered="0"/>
    <interval begin="0.00" end="15.00" id="ild_in:nt2,np5" nVehContrib="0" flow="0.00" occupancy="0.00" speed="-1.00" length="-1.00" nVehEntered="0"/>
    <interval begin="0.00" end="15.00" id="ild_in:nt5,np11" nVehContrib="0" flow="0.00" occupancy="0.00" speed="-1.00" length="-1.00" nVehEntered="0"/>
    <interval begin="0.00" end="15.00" id="ild_in:nt3,np6" nVehContrib="0" flow="0.00" occupancy="0.00" speed="-1.00" length="-1.00" nVehEntered="0"/>
    <interval begin="15.00" end="30.00" id="ild_in:nt1,nt2" nVehContrib="1" flow="240.00" occupancy="1.78" speed="18.68" length="5.00" nVehEntered="1"/>
    <interval begin="15.00" end="30.00" id="ild_in:nt1,npc" nVehContrib="2" flow="480.00" occupancy="4.41" speed="15.13" length="5.00" nVehEntered="2"/>
    <interval begin="15.00" end="30.00" id="ild_in:nt1,nt6" nVehContrib="0" flow="0.00" occupancy="0.00" speed="-1.00" length="-1.00" nVehEntered="0"/>
    <interval begin="15.00" end="30.00" id="ild_in:npc,nt3" nVehContrib="1" flow="240.00" occupancy="1.67" speed="19.91" length="5.00" nVehEntered="1"/>
    <interval begin="15.00" end="30.00" id="ild_in:npc,nt5" nVehContrib="0" flow="0.00" occupancy="0.00" speed="-1.00" length="-1.00" nVehEntered="0"/>
    <interval begin="15.00" end="30.00" id="ild_in:nt5,nt6" nVehContrib="4" flow="960.00" occupancy="7.59" speed="17.60" length="5.00" nVehEntered="4"/>
    <interval begin="15.00" end="30.00" id="ild_in:nt4,nt3" nVehContrib="1" flow="240.00" occupancy="2.71" speed="12.29" length="5.00" nVehEntered="1"/>
    <interval begin="15.00" end="30.00" id="ild_in:nt4,nt5" nVehContrib="4" flow="960.00" occupancy="7.91" speed="15.14" length="5.00" nVehEntered="3"/>
    <interval begin="15.00" end="30.00" id="ild_in:nt3,nt2" nVehContrib="0" flow="0.00" occupancy="0.00" speed="-1.00" length="-1.00" nVehEntered="0"/>
    <interval begin="15.00" end="30.00" id="ild_in:nt6,np12" nVehContrib="0" flow="0.00" occupancy="0.00" speed="-1.00" length="-1.00" nVehEntered="0"/>
    <interval begin="15.00" end="30.00" id="ild_in:nt6,np13" nVehContrib="3" flow="720.00" occupancy="7.20" speed="14.00" length="5.00" nVehEntered="3"/>
    <interval begin="15.00" end="30.00" id="ild_in:nt2,np4" nVehContrib="3" flow="720.00" occupancy="8.05" speed="12.67" length="5.00" nVehEntered="3"/>
    <interval begin="15.00" end="30.00" id="ild_in:nt2,np5" nVehContrib="0" flow="0.00" occupancy="0.00" speed="-1.00" length="-1.00" nVehEntered="0"/>
    <interval begin="15.00" end="30.00" id="ild_in:nt5,np11" nVehContrib="0" flow="0.00" occupancy="0.00" speed="-1.00" length="-1.00" nVehEntered="0"/>
    <interval begin="15.00" end="30.00" id="ild_in:nt3,np6" nVehContrib="0" flow="0.00" occupancy="0.00" speed="-1.00" length="-1.00" nVehEntered="0"/>
    <interval begin="30.00" end="45.00" id="ild_in:nt1,nt2" nVehContrib="0" flow="0.00" occupancy="0.00" speed="-1.00" length="-1.00" nVehEntered="0"/>
    <interval begin="30.00" end="45.00" id="ild_in:nt1,npc" nVehContrib="1" flow="240.00" occupancy="1.69" speed="19.71" length="5.00" nVehEntered="1"/>
    <interval begin="30.00" end="45.00" id="ild_in:nt1,nt6" nVehContrib="0" flow="0.00" occupancy="0.00" speed="-1.00" length="-1.00" nVehEntered="0"/>
    <interval begin="30.00" end="45.00" id="ild_in:npc,nt3" nVehContrib="1" flow="240.00" occupancy="1.73" speed="19.26" length="5.00" nVehEntered="1"/>
    <interval begin="30.00" end="45.00" id="ild_in:npc,nt5" nVehContrib="1" flow="240.00" occupancy="1.74" speed="19.14" length="5.00" nVehEntered="1"/>
    <interval begin="30.00" end="45.00" id="ild_in:nt5,nt6" nVehContrib="0" flow="0.00" occupancy="0.00" speed="-1.00" length="-1.00" nVehEntered="0"/>
    <interval begin="30.00" end="45.00" id="ild_in:nt4,nt3" nVehContrib="0" flow="0.00" occupancy="0.00" speed="-1.00" length="-1.00" nVehEntered="0"/>
    <interval begin="30.00" end="45.00" id="ild_in:nt4,nt5" nVehContrib="3" flow="720.00" occupancy="10.19" speed="10.37" length="5.00" nVehEntered="3"/>
    <interval begin="30.00" end="45.00" id="ild_in:nt3,nt2" nVehContrib="0" flow="0.00" occupancy="0.00" speed="-1.00" length="-1.00" nVehEntered="0"/>
    <interval begin="30.00" end="45.00" id="ild_in:nt6,np12" nVehContrib="0" flow="0.00" occupancy="0.00" speed="-1.00" length="-1.00" nVehEntered="0"/>
    <interval begin="30.00" end="45.00" id="ild_in:nt6,np13" nVehContrib="5" flow="1200.00" occupancy="9.25" speed="18.07" length="5.00" nVehEntered="5"/>
    <interval begin="30.00" end="45.00" id="ild_in:nt2,np4" nVehContrib="4" flow="960.00" occupancy="7.37" speed="18.11" length="5.00" nVehEntered="4"/>
    <interval begin="30.00" end="45.00" id="ild_in:nt2,np5" nVehContrib="0" flow="0.00" occupancy="0.00" speed="-1.00" length="-1.00" nVehEntered="0"/>
    <interval begin="30.00" end="45.00" id="ild_in:nt5,np11" nVehContrib="0" flow="0.00" occupancy="0.00" speed="-1.00" length="-1.00" nVehEntered="0"/>
    <interval begin="30.00" end="45.00" id="ild_in:nt3,np6" nVehContrib="1" flow="240.00" occupancy="1.79" speed="18.64" length="5.00" nVehEntered="1"/>
    <interval begin="45.00" end="60.00" id="ild_in:nt1,nt2" nVehContrib="5" flow="1200.00" occupancy="10.34" speed="16.46" length="5.00" nVehEntered="5"/>
    <interval begin="45.00" end="60.00" id="ild_in:nt1,npc" nVehContrib="1" flow="240.00" occupancy="1.81" speed="18.46" length="5.00" nVehEntered="1"/>
    <interval begin="45.00" end="60.00" id="ild_in:nt1,nt6" nVehContrib="0" flow="0.00" occupancy="0.00" speed="-1.00" length="-1.00" nVehEntered="0"/>
    <interval begin="45.00" end="60.00" id="ild_in:npc,nt3" nVehContrib="0" flow="0.00" occupancy="0.00" speed="-1.00" length="-1.00" nVehEntered="0"/>
    <interval begin="45.00" end="60.00" id="ild_in:npc,nt5" nVehContrib="1" flow="240.00" occupancy="1.74" speed="19.16" length="5.00" nVehEntered="1"/>
    <interval begin="45.00" end="60.00" id="ild_in:nt5,nt6" nVehContrib="6" flow="1440.00" occupancy="13.88" speed="14.58" length="5.00" nVehEntered="6"/>
    <interval begin="45.00" end="60.00" id="ild_in:nt4,nt3" nVehContrib="3" flow="720.00" occupancy="7.08" speed="14.69" length="5.00" nVehEntered="3"/>
    <interval begin="45.00" end="60.00" id="ild_in:nt4,nt5" nVehContrib="2" flow="480.00" occupancy="6.65" speed="12.23" length="5.00" nVehEntered="2"/>
    <interval begin="45.00" end="60.00" id="ild_in:nt3,nt2" nVehContrib="2" flow="480.00" occupancy="3.49" speed="19.09" length="5.00" nVehEntered="2"/>
    <interval begin="45.00" end="60.00" id="ild_in:nt6,np12" nVehContrib="6" flow="1440.00" occupancy="12.87" speed="15.95" length="5.00" nVehEntered="6"/>
    <interval begin="45.00" end="60.00" id="ild_in:nt6,np13" nVehContrib="0" flow="0.00" occupancy="0.00" speed="-1.00" length="-1.00" nVehEntered="0"/>
    <interval begin="45.00" end="60.00" id="ild_in:nt2,np4" nVehContrib="0" flow="0.00" occupancy="0.00" speed="-1.00" length="-1.00" nVehEntered="0"/>
    <interval begin="45.00" end="60.00" id="ild_in:nt2,np5" nVehContrib="0" flow="0.00" occupancy="0.00" speed="-1.00" length="-1.00" nVehEntered="0"/>
    <interval begin="45.00" end="60.00" id="ild_in:nt5,np11" nVehContrib="1" flow="240.00" occupancy="2.90" speed="15.57" length="5.00" nVehEntered="2"/>
    <interval begin="45.00" end="60.00" id="ild_in:nt3,np6" nVehContrib="1" flow="240.00" occupancy="2.61" speed="12.78" length="5.00" nVehEntered="1"/>
    <interval begin="60.00" end="75.00" id="ild_in:nt1,nt2" nVehContrib="2" flow="480.00" occupancy="6.13" speed="12.81" length="5.00" nVehEntered="2"/>
    <interval begin="60.00" end="75.00" id="ild_in:nt1,npc" nVehContrib="1" flow="240.00" occupancy="2.04" speed="16.31" length="5.00" nVehEntered="1"/>
    <interval begin="60.00" end="75.00" id="ild_in:nt1,nt6" nVehContrib="3" flow="720.00" occupancy="6.19" speed="16.38" length="5.00" nVehEntered="3"/>
    <interval begin="60.00" end="75.00" id="ild_in:npc,nt3" nVehContrib="1" flow="240.00" occupancy="1.68" speed="19.82" length="5.00" nVehEntered="1"/>
    <interval begin="60.00" end="75.00" id="ild_in:npc,nt5" nVehContrib="0" flow="0.00" occupancy="0.00" speed="-1.00" length="-1.00" nVehEntered="0"/>
    <interval begin="60.00" end="75.00" id="ild_in:nt5,nt6" nVehContrib="0" flow="0.00" occupancy="0.00" speed="-1.00" length="-1.00" nVehEntered="0"/>
    <interval begin="60.00" end="75.00" id="ild_in:nt4,nt3" nVehContrib="1" flow="240.00" occupancy="2.33" speed="14.30" length="5.00" nVehEntered="1"/>
    <interval begin="60.00" end="75.00" id="ild_in:nt4,nt5" nVehContrib="2" flow="480.00" occupancy="24.41" speed="3.22" length="5.00" nVehEntered="2"/>
    <interval begin="60.00" end="75.00" id="ild_in:nt3,nt2" nVehContrib="0" flow="0.00" occupancy="0.00" speed="-1.00" length="-1.00" nVehEntered="0"/>
    <interval begin="60.00" end="75.00" id="ild_in:nt6,np12" nVehContrib="0" flow="0.00" occupancy="0.00" speed="-1.00" length="-1.00" nVehEntered="0"/>
    <interval begin="60.00" end="75.00" id="ild_in:nt6,np13" nVehContrib="6" flow="1440.00" occupancy="12.75" speed="16.32" length="5.00" nVehEntered="6"/>
    <interval begin="60.00" end="75.00" id="ild_in:nt2,np4" nVehContrib="6" flow="1440.00" occupancy="13.19" speed="15.41" length="5.00" nVehEntered="6"/>
    <interval begin="60.00" end="75.00" id="ild_in:nt2,np5" nVehContrib="0" flow="0.00" occupancy="0.00" speed="-1.00" length="-1.00" nVehEntered="0"/>
    <interval begin="60.00" end="75.00" id="ild_in:nt5,np11" nVehContrib="3" flow="720.00" occupancy="6.01" speed="14.99" length="5.00" nVehEntered="2"/>
    <interval begin="60.00" end="75.00" id="ild_in:nt3,np6" nVehContrib="1" flow="240.00" occupancy="2.93" speed="11.38" length="5.00" nVehEntered="1"/>
    <interval begin="75.00" end="90.00" id="ild_in:nt1,nt2" nVehContrib="0" flow="0.00" occupancy="1.88" speed="-1.00" length="-1.00" nVehEntered="1"/>
    <interval begin="75.00" end="90.00" id="ild_in:nt1,npc" nVehContrib="4" flow="960.00" occupancy="8.45" speed="15.95" length="5.00" nVehEntered="4"/>
    <interval begin="75.00" end="90.00" id="ild_in:nt1,nt6" nVehContrib="2" flow="480.00" occupancy="8.63" speed="7.90" length="5.00" nVehEntered="2"/>
    <interval begin="75.00" end="90.00" id="ild_in:npc,nt3" nVehContrib="1" flow="240.00" occupancy="1.84" speed="18.12" length="5.00" nVehEntered="1"/>
    <interval begin="75.00" end="90.00" id="ild_in:npc,nt5" nVehContrib="1" flow="240.00" occupancy="1.73" speed="19.29" length="5.00" nVehEntered="1"/>
    <interval begin="75.00" end="90.00" id="ild_in:nt5,nt6" nVehContrib="3" flow="720.00" occupancy="7.59" speed="13.51" length="5.00" nVehEntered="3"/>
    <interval begin="75.00" end="90.00" id="ild_in:nt4,nt3" nVehContrib="1" flow="240.00" occupancy="2.26" speed="14.77" length="5.00" nVehEntered="1"/>
    <interval begin="75.00" end="90.00" id="ild_in:nt4,nt5" nVehContrib="5" flow="1200.00" occupancy="44.50" speed="5.02" length="5.00" nVehEntered="5"/>
    <interval begin="75.00" end="90.00" id="ild_in:nt3,nt2" nVehContrib="3" flow="720.00" occupancy="7.72" speed="13.56" length="5.00" nVehEntered="3"/>
    <interval begin="75.00" end="90.00" id="ild_in:nt6,np12" nVehContrib="3" flow="720.00" occupancy="7.38" speed="13.73" length="5.00" nVehEntered="3"/>
    <interval begin="75.00" end="90.00" id="ild_in:nt6,np13" nVehContrib="2" flow="480.00" occupancy="3.62" speed="18.43" length="5.00" nVehEntered="2"/>
    <interval begin="75.00" end="90.00" id="ild_in:nt2,np4" nVehContrib="4" flow="960.00" occupancy="7.95" speed="16.96" length="5.00" nVehEntered="4"/>
    <interval begin="75.00" end="90.00" id="ild_in:nt2,np5" nVehContrib="2" flow="480.00" occupancy="5.37" speed="12.41" length="5.00" nVehEntered="2"/>
    <interval begin="75.00" end="90.00" id="ild_in:nt5,np11" nVehContrib="0" flow="0.00" occupancy="0.00" speed="-1.00" length="-1.00" nVehEntered="0"/>
    <interval begin="75.00" end="90.00" id="ild_in:nt3,np6" nVehContrib="1" flow="240.00" occupancy="1.84" speed="18.08" length="5.00" nVehEntered="1"/>
    <interval begin="90.00" end="105.00" id="ild_in:nt1,nt2" nVehContrib="2" flow="480.00" occupancy="7.27" speed="7.33" length="5.00" nVehEntered="1"/>
    <interval begin="90.00" end="105.00" id="ild_in:nt1,npc" nVehContrib="1" flow="240.00" occupancy="1.80" speed="18.47" length="5.00" nVehEntered="1"/>
    <interval begin="90.00" end="105.00" id="ild_in:nt1,nt6" nVehContrib="0" flow="0.00" occupancy="0.00" speed="-1.00" length="-1.00" nVehEntered="0"/>
    <interval begin="90.00" end="105.00" id="ild_in:npc,nt3" nVehContrib="3" flow="720.00" occupancy="5.31" speed="18.86" length="5.00" nVehEntered="3"/>
    <interval begin="90.00" end="105.00" id="ild_in:npc,nt5" nVehContrib="0" flow="0.00" occupancy="0.00" speed="-1.00" length="-1.00" nVehEntered="0"/>
    <interval begin="90.00" end="105.00" id="ild_in:nt5,nt6" nVehContrib="3" flow="720.00" occupancy="7.01" speed="14.73" length="5.00" nVehEntered="3"/>
    <interval begin="90.00" end="105.00" id="ild_in:nt4,nt3" nVehContrib="0" flow="0.00" occupancy="0.00" speed="-1.00" length="-1.00" nVehEntered="0"/>
    <interval begin="90.00" end="105.00" id="ild_in:nt4,nt5" nVehContrib="1" flow="240.00" occupancy="28.09" speed="1.19" length="5.00" nVehEntered="1"/>
    <interval begin="90.00" end="105.00" id="ild_in:nt3,nt2" nVehContrib="0" flow="0.00" occupancy="0.00" speed="-1.00" length="-1.00" nVehEntered="0"/>
    <interval begin="90.00" end="105.00" id="ild_in:nt6,np12" nVehContrib="4" flow="960.00" occupancy="7.29" speed="18.33" length="5.00" nVehEntered="4"/>
    <interval begin="90.00" end="105.00" id="ild_in:nt6,np13" nVehContrib="0" flow="0.00" occupancy="0.00" speed="-1.00" length="-1.00" nVehEntered="0"/>
    <interval begin="90.00" end="105.00" id="ild_in:nt2,np4" nVehContrib="0" flow="0.00" occupancy="0.00" speed="-1.00" length="-1.00" nVehEntered="0"/>
    <interval begin="90.00" end="105.00" id="ild_in:nt2,np5" nVehContrib="3" flow="720.00" occupancy="5.30" speed="18.90" length="5.00" nVehEntered="3"/>
    <interval begin="90.00" end="105.00" id="ild_in:nt5,np11" nVehContrib="3" flow="720.00" occupancy="6.13" speed="16.34" length="5.00" nVehEntered="3"/>
    <interval begin="90.00" end="105.00" id="ild_in:nt3,np6" nVehContrib="0" flow="0.00" occupancy="0.00" speed="-1.00" length="-1.00" nVehEntered="0"/>
    <interval begin="105.00" end="120.00" id="ild_in:nt1,nt2" nVehContrib="2" flow="480.00" occupancy="6.99" speed="11.81" length="5.00" nVehEntered="2"/>
    <interval begin="105.00" end="120.00" id="ild_in:nt1,npc" nVehContrib="4" flow="960.00" occupancy="7.94" speed="17.17" length="5.00" nVehEntered="4"/>
    <interval begin="105.00" end="120.00" id="ild_in:nt1,nt6" nVehContrib="1" flow="240.00" occupancy="1.98" speed="16.87" length="5.00" nVehEntered="1"/>
    <interval begin="105.00" end="120.00" id="ild_in:npc,nt3" nVehContrib="1" flow="240.00" occupancy="1.73" speed="19.22" length="5.00" nVehEntered="1"/>
    <interval begin="105.00" end="120.00" id="ild_in:npc,nt5" nVehContrib="2" flow="480.00" occupancy="3.64" speed="18.34" length="5.00" nVehEntered="2"/>
    <interval begin="105.00" end="120.00" id="ild_in:nt5,nt6" nVehContrib="1" flow="240.00" occupancy="2.69" speed="12.40" length="5.00" nVehEntered="1"/>
    <interval begin="105.00" end="120.00" id="ild_in:nt4,nt3" nVehContrib="0" flow="0.00" occupancy="0.00" speed="-1.00" length="-1.00" nVehEntered="0"/>
    <interval begin="105.00" end="120.00" id="ild_in:nt4,nt5" nVehContrib="2" flow="480.00" occupancy="27.91" speed="3.44" length="5.00" nVehEntered="2"/>
    <interval begin="105.00" end="120.00" id="ild_in:nt3,nt2" nVehContrib="1" flow="240.00" occupancy="1.72" speed="19.42" length="5.00" nVehEntered="1"/>
    <interval begin="105.00" end="120.00" id="ild_in:nt6,np12" nVehContrib="0" flow="0.00" occupancy="0.00" speed="-1.00" length="-1.00" nVehEntered="0"/>
    <interval begin="105.00" end="120.00" id="ild_in:nt6,np13" nVehContrib="9" flow="2160.00" occupancy="18.13" speed="17.02" length="5.00" nVehEntered="9"/>
    <interval begin="105.00" end="120.00" id="ild_in:nt2,np4" nVehContrib="9" flow="2160.00" occupancy="17.88" speed="16.99" length="5.00" nVehEntered="9"/>
    <interval begin="105.00" end="120.00" id="ild_in:nt2,np5" nVehContrib="0" flow="0.00" occupancy="0.00" speed="-1.00" length="-1.00" nVehEntered="0"/>
    <interval begin="105.00" end="120.00" id="ild_in:nt5,np11" nVehContrib="0" flow="0.00" occupancy="0.00" speed="-1.00" length="-1.00" nVehEntered="0"/>
    <interval begin="105.00" end="120.00" id="ild_in:nt3,np6" nVehContrib="3" flow="720.00" occupancy="6.33" speed="16.60" length="5.00" nVehEntered="3"/>
    <interval begin="120.00" end="135.00" id="ild_in:nt1,nt2" nVehContrib="0" flow="0.00" occupancy="0.00" speed="-1.00" length="-1.00" nVehEntered="0"/>
    <interval begin="120.00" end="135.00" id="ild_in:nt1,npc" nVehContrib="1" flow="240.00" occupancy="2.13" speed="15.68" length="5.00" nVehEntered="1"/>
    <interval begin="120.00" end="135.00" id="ild_in:nt1,nt6" nVehContrib="5" flow="1200.00" occupancy="10.14" speed="16.70" length="5.00" nVehEntered="5"/>
    <interval begin="120.00" end="135.00" id="ild_in:npc,nt3" nVehContrib="2" flow="480.00" occupancy="3.63" speed="18.35" length="5.00" nVehEntered="2"/>
    <interval begin="120.00" end="135.00" id="ild_in:npc,nt5" nVehContrib="0" flow="0.00" occupancy="0.00" speed="-1.00" length="-1.00" nVehEntered="0"/>
    <interval begin="120.00" end="135.00" id="ild_in:nt5,nt6" nVehContrib="5" flow="1200.00" occupancy="11.87" speed="14.08" length="5.00" nVehEntered="5"/>
    <interval begin="120.00" end="135.00" id="ild_in:nt4,nt3" nVehContrib="3" flow="720.00" occupancy="7.94" speed="12.61" length="5.00" nVehEntered="3"/>
    <interval begin="120.00" end="135.00" id="ild_in:nt4,nt5" nVehContrib="4" flow="960.00" occupancy="51.51" speed="2.82" length="5.00" nVehEntered="4"/>
    <interval begin="120.00" end="135.00" id="ild_in:nt3,nt2" nVehContrib="1" flow="240.00" occupancy="1.68" speed="19.86" length="5.00" nVehEntered="1"/>
    <interval begin="120.00" end="135.00" id="ild_in:nt6,np12" nVehContrib="4" flow="960.00" occupancy="9.80" speed="14.13" length="5.00" nVehEntered="4"/>
    <interval begin="120.00" end="135.00" id="ild_in:nt6,np13" nVehContrib="0" flow="0.00" occupancy="0.00" speed="-1.00" length="-1.00" nVehEntered="0"/>
    <interval begin="120.00" end="135.00" id="ild_in:nt2,np4" nVehContrib="1" flow="240.00" occupancy="1.68" speed="19.81" length="5.00" nVehEntered="1"/>
    <interval begin="120.00" end="135.00" id="ild_in:nt2,np5" nVehContrib="1" flow="240.00" occupancy="1.77" speed="18.79" length="5.00" nVehEntered="1"/>
    <interval begin="120.00" end="135.00" id="ild_in:nt5,np11" nVehContrib="0" flow="0.00" occupancy="0.00" speed="-1.00" length="-1.00" nVehEntered="0"/>
    <interval begin="120.00" end="135.00" id="ild_in:nt3,np6" nVehContrib="0" flow="0.00" occupancy="0.00" speed="-1.00" length="-1.00" nVehEntered="0"/>
    <interval begin="135.00" end="150.00" id="ild_in:nt1,nt2" nVehContrib="0" flow="0.00" occupancy="0.74" speed="-1.00" length="-1.00" nVehEntered="1"/>
    <interval begin="135.00" end="150.00" id="ild_in:nt1,npc" nVehContrib="2" flow="480.00" occupancy="4.41" speed="15.40" length="5.00" nVehEntered="2"/>
    <interval begin="135.00" end="150.00" id="ild_in:nt1,nt6" nVehContrib="3" flow="720.00" occupancy="16.33" speed="9.09" length="5.00" nVehEntered="3"/>
    <interval begin="135.00" end="150.00" id="ild_in:npc,nt3" nVehContrib="1" flow="240.00" occupancy="1.76" speed="18.90" length="5.00" nVehEntered="1"/>
    <interval begin="135.00" end="150.00" id="ild_in:npc,nt5" nVehContrib="0" flow="0.00" occupancy="0.00" speed="-1.00" length="-1.00" nVehEntered="0"/>
    <interval begin="135.00" end="150.00" id="ild_in:nt5,nt6" nVehContrib="5" flow="1200.00" occupancy="10.23" speed="16.99" length="5.00" nVehEntered="5"/>
    <interval begin="135.00" end="150.00" id="ild_in:nt4,nt3" nVehContrib="2" flow="480.00" occupancy="5.88" speed="11.35" length="5.00" nVehEntered="2"/>
    <interval begin="135.00" end="150.00" id="ild_in:nt4,nt5" nVehContrib="0" flow="0.00" occupancy="0.00" speed="-1.00" length="-1.00" nVehEntered="0"/>
    <interval begin="135.00" end="150.00" id="ild_in:nt3,nt2" nVehContrib="1" flow="240.00" occupancy="2.13" speed="15.63" length="5.00" nVehEntered="1"/>
    <interval begin="135.00" end="150.00" id="ild_in:nt6,np12" nVehContrib="3" flow="720.00" occupancy="5.22" speed="19.16" length="5.00" nVehEntered="3"/>
    <interval begin="135.00" end="150.00" id="ild_in:nt6,np13" nVehContrib="3" flow="720.00" occupancy="8.68" speed="11.61" length="5.00" nVehEntered="3"/>
    <interval begin="135.00" end="150.00" id="ild_in:nt2,np4" nVehContrib="3" flow="720.00" occupancy="6.60" speed="15.44" length="5.00" nVehEntered="3"/>
    <interval begin="135.00" end="150.00" id="ild_in:nt2,np5" nVehContrib="0" flow="0.00" occupancy="0.00" speed="-1.00" length="-1.00" nVehEntered="0"/>
    <interval begin="135.00" end="150.00" id="ild_in:nt5,np11" nVehContrib="1" flow="240.00" occupancy="2.57" speed="12.99" length="5.00" nVehEntered="1"/>
    <interval begin="135.00" end="150.00" id="ild_in:nt3,np6" nVehContrib="3" flow="720.00" occupancy="6.84" speed="15.39" length="5.00" nVehEntered="3"/>
    <interval begin="150.00" end="165.00" id="ild_in:nt1,nt2" nVehContrib="2" flow="480.00" occupancy="5.51" speed="12.82" length="5.00" nVehEntered="1"/>
    <interval begin="150.00" end="165.00" id="ild_in:nt1,npc" nVehContrib="1" flow="240.00" occupancy="1.71" speed="19.51" length="5.00" nVehEntered="1"/>
    <interval begin="150.00" end="165.00" id="ild_in:nt1,nt6" nVehContrib="0" flow="0.00" occupancy="0.00" speed="-1.00" length="-1.00" nVehEntered="0"/>
    <interval begin="150.00" end="165.00" id="ild_in:npc,nt3" nVehContrib="1" flow="240.00" occupancy="1.82" speed="18.36" length="5.00" nVehEntered="1"/>
    <interval begin="150.00" end="165.00" id="ild_in:npc,nt5" nVehContrib="1" flow="240.00" occupancy="1.73" speed="19.22" length="5.00" nVehEntered="1"/>
    <interval begin="150.00" end="165.00" id="ild_in:nt5,nt6" nVehContrib="0" flow="0.00" occupancy="0.00" speed="-1.00" length="-1.00" nVehEntered="0"/>
    <interval begin="150.00" end="165.00" id="ild_in:nt4,nt3" nVehContrib="1" flow="240.00" occupancy="3.14" speed="10.62" length="5.00" nVehEntered="1"/>
    <interval begin="150.00" end="165.00" id="ild_in:nt4,nt5" nVehContrib="4" flow="960.00" occupancy="35.84" speed="4.49" length="5.00" nVehEntered="4"/>
    <interval begin="150.00" end="165.00" id="ild_in:nt3,nt2" nVehContrib="0" flow="0.00" occupancy="0.00" speed="-1.00" length="-1.00" nVehEntered="0"/>
    <interval begin="150.00" end="165.00" id="ild_in:nt6,np12" nVehContrib="0" flow="0.00" occupancy="0.00" speed="-1.00" length="-1.00" nVehEntered="0"/>
    <interval begin="150.00" end="165.00" id="ild_in:nt6,np13" nVehContrib="7" flow="1680.00" occupancy="13.13" speed="17.81" length="5.00" nVehEntered="7"/>
    <interval begin="150.00" end="165.00" id="ild_in:nt2,np4" nVehContrib="7" flow="1680.00" occupancy="12.95" speed="18.12" length="5.00" nVehEntered="7"/>
    <interval begin="150.00" end="165.00" id="ild_in:nt2,np5" nVehContrib="0" flow="0.00" occupancy="0.00" speed="-1.00" length="-1.00" nVehEntered="0"/>
    <interval begin="150.00" end="165.00" id="ild_in:nt5,np11" nVehContrib="0" flow="0.00" occupancy="0.00" speed="-1.00" length="-1.00" nVehEntered="0"/>
    <interval begin="150.00" end="165.00" id="ild_in:nt3,np6" nVehContrib="1" flow="240.00" occupancy="1.74" speed="19.19" length="5.00" nVehEntered="1"/>
    <interval begin="165.00" end="180.00" id="ild_in:nt1,nt2" nVehContrib="4" flow="960.00" occupancy="11.72" speed="13.68" length="5.00" nVehEntered="5"/>
    <interval begin="165.00" end="180.00" id="ild_in:nt1,npc" nVehContrib="1" flow="240.00" occupancy="2.60" speed="12.83" length="5.00" nVehEntered="1"/>
    <interval begin="165.00" end="180.00" id="ild_in:nt1,nt6" nVehContrib="3" flow="720.00" occupancy="8.34" speed="13.03" length="5.00" nVehEntered="3"/>
    <interval begin="165.00" end="180.00" id="ild_in:npc,nt3" nVehContrib="1" flow="240.00" occupancy="1.82" speed="18.35" length="5.00" nVehEntered="1"/>
    <interval begin="165.00" end="180.00" id="ild_in:npc,nt5" nVehContrib="0" flow="0.00" occupancy="0.00" speed="-1.00" length="-1.00" nVehEntered="0"/>
    <interval begin="165.00" end="180.00" id="ild_in:nt5,nt6" nVehContrib="5" flow="1200.00" occupancy="11.51" speed="14.92" length="5.00" nVehEntered="5"/>
    <interval begin="165.00" end="180.00" id="ild_in:nt4,nt3" nVehContrib="0" flow="0.00" occupancy="0.00" speed="-1.00" length="-1.00" nVehEntered="0"/>
    <interval begin="165.00" end="180.00" id="ild_in:nt4,nt5" nVehContrib="2" flow="480.00" occupancy="30.39" speed="2.59" length="5.00" nVehEntered="2"/>
    <interval begin="165.00" end="180.00" id="ild_in:nt3,nt2" nVehContrib="3" flow="720.00" occupancy="7.41" speed="14.05" length="5.00" nVehEntered="3"/>
    <interval begin="165.00" end="180.00" id="ild_in:nt6,np12" nVehContrib="8" flow="1920.00" occupancy="16.07" speed="16.82" length="5.00" nVehEntered="8"/>
    <interval begin="165.00" end="180.00" id="ild_in:nt6,np13" nVehContrib="0" flow="0.00" occupancy="0.00" speed="-1.00" length="-1.00" nVehEntered="0"/>
    <interval begin="165.00" end="180.00" id="ild_in:nt2,np4" nVehContrib="0" flow="0.00" occupancy="0.00" speed="-1.00" length="-1.00" nVehEntered="0"/>
    <interval begin="165.00" end="180.00" id="ild_in:nt2,np5" nVehContrib="4" flow="960.00" occupancy="8.56" speed="16.30" length="5.00" nVehEntered="4"/>
    <interval begin="165.00" end="180.00" id="ild_in:nt5,np11" nVehContrib="3" flow="720.00" occupancy="6.00" speed="16.82" length="5.00" nVehEntered="3"/>
    <interval begin="165.00" end="180.00" id="ild_in:nt3,np6" nVehContrib="1" flow="240.00" occupancy="2.13" speed="15.64" length="5.00" nVehEntered="1"/>
    <interval begin="180.00" end="195.00" id="ild_in:nt1,nt2" nVehContrib="3" flow="720.00" occupancy="5.82" speed="14.29" length="5.00" nVehEntered="2"/>
    <interval begin="180.00" end="195.00" id="ild_in:nt1,npc" nVehContrib="3" flow="720.00" occupancy="6.44" speed="15.72" length="5.00" nVehEntered="3"/>
    <interval begin="180.00" end="195.00" id="ild_in:nt1,nt6" nVehContrib="1" flow="240.00" occupancy="3.62" speed="9.20" length="5.00" nVehEntered="1"/>
    <interval begin="180.00" end="195.00" id="ild_in:npc,nt3" nVehContrib="0" flow="0.00" occupancy="0.00" speed="-1.00" length="-1.00" nVehEntered="0"/>
    <interval begin="180.00" end="195.00" id="ild_in:npc,nt5" nVehContrib="1" flow="240.00" occupancy="1.69" speed="19.68" length="5.00" nVehEntered="1"/>
    <interval begin="180.00" end="195.00" id="ild_in:nt5,nt6" nVehContrib="1" flow="240.00" occupancy="2.47" speed="13.49" length="5.00" nVehEntered="1"/>
    <interval begin="180.00" end="195.00" id="ild_in:nt4,nt3" nVehContrib="1" flow="240.00" occupancy="2.81" speed="11.86" length="5.00" nVehEntered="1"/>